/*--------------------------------*- C++ -*----------------------------------*\
  =========                 |
  \\      /  F ield         | OpenFOAM: The Open Source CFD Toolbox
   \\    /   O peration     | Website:  https://openfoam.org
    \\  /    A nd           | Version:  13
     \\/     M anipulation  |
\*---------------------------------------------------------------------------*/
FoamFile
{
    format      ascii;
    class       vectorField;
    location    "47.6";
    object      U_all;
}
// * * * * * * * * * * * * * * * * * * * * * * * * * * * * * * * * * * * * * //


400
(
(1.100840045e-05 -3.783023761e-05 0)
(-0.0006660925499 0.0004130430634 -1.551436971e-23)
(-0.00218537386 0.0009203942699 0)
(-0.004047832543 0.001312781842 0)
(-0.005971867472 0.001535065914 6.845854744e-25)
(-0.007762781861 0.001569846594 4.151167316e-24)
(-0.009284544589 0.001423561742 -7.3746871e-24)
(-0.01043594274 0.001119722498 7.529518149e-24)
(-0.01113681734 0.0006960838973 -2.095332358e-25)
(-0.01132711428 0.0002030804118 -3.994548054e-24)
(-0.01097177364 -0.0003002309171 5.803548221e-24)
(-0.01007232689 -0.0007475153451 -5.929538803e-23)
(-0.008679878083 -0.001075563491 -6.552647769e-23)
(-0.006902851558 -0.001233045988 -7.784192674e-23)
(-0.004910737992 -0.001192639666 4.573512477e-24)
(-0.002927232763 -0.0009619205199 -4.13786678e-24)
(-0.001205300049 -0.0005912109283 -1.998722837e-22)
(-1.906912798e-05 -0.0001698818365 0)
(0.0005181532301 0.0001720868736 1.509600268e-25)
(0.0002227512296 0.0003059788578 -2.553101985e-24)
(-0.0002633614987 0.0008289722235 1.382869674e-25)
(-0.002703303113 0.003383842732 1.561236148e-23)
(-0.006907275253 0.005604502253 1.555591656e-25)
(-0.0119523199 0.007008209373 -8.496078201e-25)
(-0.01713504593 0.007553778003 1.162226036e-24)
(-0.02197535554 0.007294200263 1.306966553e-23)
(-0.02611076046 0.006321892849 1.387820615e-24)
(-0.02926564612 0.004754191175 -7.281260478e-24)
(-0.03122672998 0.002737151301 1.015222867e-23)
(-0.03184201174 0.0004524076634 4.509874965e-24)
(-0.0310276177 -0.001884141644 -6.318812952e-24)
(-0.02879316937 -0.004023027015 2.961889325e-24)
(-0.02527138507 -0.005708353837 3.895514282e-23)
(-0.02073194844 -0.006707410498 -1.954748065e-24)
(-0.01558962521 -0.006854141535 3.754428667e-24)
(-0.01038513326 -0.006097465038 -9.740736773e-23)
(-0.00573027223 -0.004546186394 9.637481058e-23)
(-0.002233367535 -0.002507418445 -3.960993082e-25)
(-0.0001817775777 -0.0005023715967 4.060890051e-25)
(8.343360509e-05 0.0006099257769 0)
(-0.000418823249 0.002935081317 -2.910318315e-25)
(-0.004647873919 0.008804016345 1.701948136e-23)
(-0.01137195897 0.01324042437 -8.284665675e-24)
(-0.01932729042 0.01579204192 -2.075768339e-25)
(-0.02747411836 0.01653000272 2.039225668e-25)
(-0.03511779098 0.01564441998 6.79781262e-27)
(-0.04171345058 0.01335997821 -1.220303865e-24)
(-0.04683571801 0.009919770867 -4.551231971e-25)
(-0.05014988876 0.005602431152 -1.063039853e-23)
(-0.05141231877 0.0007444182743 0)
(-0.05047793369 -0.004241781623 0)
(-0.04733706531 -0.008887186653 2.670973215e-23)
(-0.04215928192 -0.0126817683 2.812996706e-23)
(-0.03531437589 -0.01513605099 -1.646140957e-24)
(-0.02738996252 -0.01586189564 4.845773778e-23)
(-0.01917005791 -0.01467334222 9.419046317e-23)
(-0.01156090679 -0.0116936043 3.975424921e-23)
(-0.005465412488 -0.007450743432 4.141188122e-25)
(-0.001451101459 -0.002936044054 1.074065555e-25)
(-9.072878654e-05 0.0002258772427 0)
(-0.0005024634772 0.006045351849 -4.248713531e-23)
(-0.006402740619 0.01637075849 -1.69217217e-23)
(-0.01553502464 0.02355933775 8.211512366e-24)
(-0.02627912022 0.02744162678 0)
(-0.0372874677 0.02832102227 0)
(-0.04769037633 0.02658772705 0)
(-0.05679663314 0.02263120621 -4.464715389e-26)
(-0.06405384345 0.0168360955 -2.137117215e-24)
(-0.06901081744 0.009622184685 0)
(-0.07130828033 0.001491049004 1.635365275e-24)
(-0.0707085365 -0.00693650604 2.802715582e-25)
(-0.06713039583 -0.01493019065 -2.810563121e-25)
(-0.06069905833 -0.02166728312 0)
(-0.05180750749 -0.02631605846 4.13320394e-23)
(-0.04114991791 -0.02816070953 -4.681488738e-23)
(-0.0297197023 -0.02677372334 -2.761819376e-23)
(-0.01873716658 -0.02221530632 -3.960567064e-23)
(-0.009488028839 -0.01521922286 7.795819875e-25)
(-0.002976881312 -0.007298195326 9.790521509e-23)
(-0.0002318807377 -0.0008661676934 0)
(-0.0005316132123 0.01009501643 4.269373773e-23)
(-0.007983593398 0.02595219862 4.785548444e-25)
(-0.01939687634 0.03642883252 -4.676248082e-25)
(-0.03282382601 0.0418552105 0)
(-0.04664689115 0.04289485413 7.783031129e-25)
(-0.05985229794 0.04020074129 -7.675116572e-25)
(-0.07163291587 0.03434741786 3.672333982e-23)
(-0.08132751553 0.02585664264 1.848267922e-23)
(-0.08836601425 0.01527298525 6.239022414e-24)
(-0.09225469867 0.003246147892 -1.637270497e-24)
(-0.09260380057 -0.009407833013 0)
(-0.08917555718 -0.0216747821 4.370559692e-25)
(-0.08195979419 -0.03236745307 1.008995478e-23)
(-0.07126885581 -0.04021250384 -4.349232111e-23)
(-0.05782018921 -0.04402046556 1.932847316e-24)
(-0.04278583023 -0.04294829562 4.217061988e-23)
(-0.02775450361 -0.0368334711 -3.841406623e-25)
(-0.01455062358 -0.02652721113 0)
(-0.004859462953 -0.01408454559 5.436538399e-23)
(-0.0003641487164 -0.0028469531 -2.565090938e-22)
(-0.0005272206418 0.01499927696 9.841598275e-23)
(-0.00937792492 0.03739022448 -4.907859202e-25)
(-0.02288182886 0.05170223384 0)
(-0.03883043749 0.058941836 0)
(-0.05538657031 0.06025575031 -8.73215873e-23)
(-0.0714287691 0.05661901307 -8.499113739e-23)
(-0.08606654372 0.04880168877 -4.067593252e-23)
(-0.09855086251 0.03743980568 -1.504398272e-23)
(-0.1081945344 0.02315984026 -5.369043117e-24)
(-0.1143444768 0.006709679918 -8.175067275e-24)
(-0.116404625 -0.01093292133 6.601177432e-24)
(-0.1138937437 -0.02848945115 8.826738928e-24)
(-0.1065487007 -0.04437046428 -1.892314057e-23)
(-0.09446804223 -0.05675334 4.607664018e-24)
(-0.07826857001 -0.06378298915 0)
(-0.05922895494 -0.06393495651 -1.57278796e-23)
(-0.03933981942 -0.05653816467 -2.431330085e-26)
(-0.02114188846 -0.04235809244 0)
(-0.00731870291 -0.02398229466 -1.520662633e-22)
(-0.0005216165145 -0.005925544833 6.056297057e-22)
(-0.0004990817998 0.02064574653 -9.774549177e-23)
(-0.01052950941 0.05045438289 2.831991254e-22)
(-0.02582957478 0.06912511946 1.526866386e-22)
(-0.04402138479 0.07849258295 3.61930199e-24)
(-0.06310739459 0.08029476858 -7.319371827e-23)
(-0.08190405396 0.07588043295 9.043571626e-23)
(-0.09947763948 0.06621690927 -3.590226573e-24)
(-0.1150227399 0.05201695146 -1.729179332e-24)
(-0.1277519202 0.03392358482 2.524175363e-24)
(-0.1368472628 0.01270233157 7.382696958e-24)
(-0.1414710555 -0.01058782359 -6.500923173e-24)
(-0.1408248217 -0.03446024423 -9.788165691e-24)
(-0.1342746 -0.05692771816 -3.261739303e-23)
(-0.1215450263 -0.0755331639 -3.661495023e-23)
(-0.1029672672 -0.08754260778 5.645963619e-25)
(-0.07976369987 -0.0903920988 0)
(-0.05426682534 -0.08244513916 0)
(-0.02987160973 -0.06397736966 -2.906085543e-24)
(-0.01066285151 -0.03798794765 2.970535235e-24)
(-0.0007350936015 -0.01050089488 1.027872507e-22)
(-0.000447916582 0.02687251324 0)
(-0.01134923263 0.06480757783 2.001983723e-22)
(-0.02801599703 0.0882961751 8.962041695e-23)
(-0.0479985744 0.1001234976 0)
(-0.06920602205 0.1027076588 1.569890659e-22)
(-0.09044373496 0.09781578985 0)
(-0.1107831714 0.08661103346 -1.428392201e-22)
(-0.1294093795 0.06983950559 6.515580999e-24)
(-0.1454771666 0.0480823227 0)
(-0.1580351845 0.02201755547 0)
(-0.1660133492 -0.007334440544 -1.374417093e-24)
(-0.1682671597 -0.03838839829 -9.316801933e-25)
(-0.1637064737 -0.06883975969 1.491984652e-22)
(-0.1515208796 -0.09558275896 -4.704642308e-23)
(-0.1315134581 -0.1148298676 -2.560980509e-24)
(-0.1045596093 -0.1225703431 1.534743036e-24)
(-0.07309349991 -0.1155517985 -1.558952505e-24)
(-0.0413502154 -0.09283115711 0)
(-0.0152523029 -0.05740767712 3.203824296e-24)
(-0.001044309041 -0.01714714491 -1.012917353e-21)
(-0.0003744667289 0.03346304631 0)
(-0.0117500612 0.07998919047 -1.128295141e-22)
(-0.02920707984 0.1086390981 -6.191163738e-22)
(-0.05031745109 0.1232234027 -3.755313811e-22)
(-0.072963176 0.1269097067 0)
(-0.09598960429 0.121925567 4.119463401e-22)
(-0.1185273512 0.109634867 1.260928397e-22)
(-0.1398146452 0.09078246076 -5.581849004e-24)
(-0.1590221584 0.06581393272 5.554221851e-24)
(-0.175146104 0.035208811 0)
(-0.1869560023 -0.0001967479862 2.912137641e-23)
(-0.193017269 -0.03889754471 4.69585325e-24)
(-0.1917809955 -0.07843888687 -1.076812193e-22)
(-0.1817874475 -0.1151865396 8.004235178e-23)
(-0.1620570468 -0.1442599486 -2.419753178e-22)
(-0.1327062026 -0.1598548653 0)
(-0.09577888318 -0.156311291 0)
(-0.05601633137 -0.1302981102 0)
(-0.02147859161 -0.08381135216 0)
(-0.001500384609 -0.02665516322 5.572132531e-22)
(-0.0002873899568 0.04016077774 0)
(-0.01169359626 0.09543611779 -3.493024713e-22)
(-0.02924438328 0.1294073668 8.932816663e-22)
(-0.05060947356 0.1469299212 3.617185876e-22)
(-0.07370082751 0.1519748712 0)
(-0.0974515126 0.1472757993 -3.862560808e-22)
(-0.1211069852 0.1344191975 -3.1744343e-23)
(-0.1440324803 0.1141393337 3.33310867e-22)
(-0.1655143255 0.08670006723 1.769477053e-22)
(-0.1846248544 0.05229123511 -4.060157889e-23)
(-0.2001325835 0.01141716116 1.656821735e-23)
(-0.2104622469 -0.03471424301 -8.265265777e-24)
(-0.2137208555 -0.08376563814 3.371864074e-22)
(-0.2078215524 -0.1318756372 0)
(-0.1908238559 -0.1732756164 2.420922207e-22)
(-0.1616335757 -0.2002593422 5.774799804e-24)
(-0.1211662704 -0.2040121735 -5.860919151e-24)
(-0.07384989876 -0.1772119978 1.548455893e-22)
(-0.02971786856 -0.118864234 -5.435484423e-24)
(-0.002179545171 -0.04005398775 0)
(-0.0002117196932 0.04671640058 0)
(-0.01125001027 0.1105498147 0)
(-0.02815624419 0.1497355039 -5.022765967e-22)
(-0.04874479316 0.1701517647 -1.881000838e-23)
(-0.07100086684 0.176625719 2.038380715e-23)
(-0.09399451545 0.1724526549 -2.014313189e-23)
(-0.1171434303 0.1594871016 -2.31688546e-23)
(-0.1400179505 0.1384805102 -3.02982694e-22)
(-0.162132889 0.1095160725 6.698610591e-23)
(-0.1827959036 0.07245186973 4.51318454e-23)
(-0.2009835557 0.02734928766 -4.577727918e-23)
(-0.2152270265 -0.02508697913 0)
(-0.2235562216 -0.08298351569 -7.839711371e-23)
(-0.2234632203 -0.1427257357 0)
(-0.2120679441 -0.198182091 -3.739567596e-22)
(-0.1867434559 -0.2400773727 5.244963867e-22)
(-0.1464438314 -0.2560773443 0)
(-0.09394567796 -0.2331209532 -1.494001743e-22)
(-0.04022001024 -0.1639613679 1.937558943e-22)
(-0.003201100307 -0.05861063198 -3.411538511e-22)
(-0.0002015407397 0.05297585202 0)
(-0.01067261805 0.124817241 9.182879342e-22)
(-0.02628446579 0.1687424613 -2.440688468e-23)
(-0.04501107751 0.191645518 9.193350787e-22)
(-0.06494597486 0.1992921096 -2.512089659e-23)
(-0.08536628534 0.1956104356 2.838846576e-23)
(-0.1059305646 0.1827886873 -2.812932614e-23)
(-0.1264924182 0.1616583529 -1.660919134e-23)
(-0.1468996838 0.132176231 -5.260232939e-22)
(-0.1668458146 0.09389646629 -8.906635072e-24)
(-0.1857303012 0.04640576208 9.660204209e-24)
(-0.2024781674 -0.01023784905 3.313080105e-22)
(-0.2154154603 -0.07499820552 -5.820745449e-22)
(-0.2220209708 -0.1450311865 0)
(-0.21880321 -0.2146760648 8.887333922e-22)
(-0.2016257525 -0.2740016456 -4.94089591e-22)
(-0.1668639196 -0.307581199 -1.572226097e-23)
(-0.1140220098 -0.2953811942 0)
(-0.05288482042 -0.21958026 -1.8901925e-22)
(-0.004749188191 -0.0837727803 3.36059614e-22)
(-0.000364198491 0.05902317873 1.551011838e-23)
(-0.01049573893 0.1379881524 -8.764206478e-22)
(-0.02441389422 0.185680413 -1.157060325e-21)
(-0.04026724308 0.2101384785 -8.62899901e-22)
(-0.05630729512 0.2182348947 0)
(-0.07214856462 0.2146190305 3.513808368e-23)
(-0.08779221507 0.2018791985 -7.29487224e-23)
(-0.1034562777 0.1810005631 5.867888516e-23)
(-0.1193983856 0.1518997254 3.021368784e-22)
(-0.1357931529 0.1139150572 -1.128196408e-23)
(-0.1526082301 0.06621424898 0)
(-0.1694521356 0.008177202278 -3.603932429e-22)
(-0.1852760581 -0.06015987859 7.515673318e-22)
(-0.1980448503 -0.1372747031 8.831709608e-22)
(-0.2043546254 -0.2189261911 -5.296632533e-22)
(-0.1990977607 -0.2959712938 5.16269459e-22)
(-0.1760605328 -0.3514072616 1.078235714e-23)
(-0.1300890632 -0.3584150811 -1.095550799e-23)
(-0.06688803319 -0.2843276533 -8.215243929e-23)
(-0.007083319957 -0.1169964426 0)
(-0.0009095775833 0.06540041616 -1.911488421e-23)
(-0.01167591681 0.150281643 -1.326966591e-21)
(-0.02388881965 0.2000659583 1.094238642e-21)
(-0.03601340258 0.2244216992 6.734936471e-22)
(-0.04657308553 0.231658827 6.014637574e-22)
(-0.05577038307 0.2272393724 6.64396288e-22)
(-0.06411245535 0.2141774902 -4.458680573e-23)
(-0.072275614 0.1936494401 -3.461339299e-22)
(-0.0809697268 0.1656028328 2.152163596e-22)
(-0.09087192035 0.1292707358 0)
(-0.1025547423 0.08353082433 0)
(-0.1163622127 0.02720010634 2.655398089e-22)
(-0.1321589532 -0.04062006132 8.194325669e-23)
(-0.1489252293 -0.1200128321 -2.821625748e-22)
(-0.1641284261 -0.2089300704 -5.411274702e-23)
(-0.1727877605 -0.3006992521 1.301952091e-22)
(-0.1670311296 -0.3793329119 -3.40050931e-22)
(-0.1365292435 -0.4136451987 -1.593807504e-23)
(-0.08018250135 -0.353832622 8.204016707e-23)
(-0.01050762294 -0.1594130577 -6.032153757e-22)
(-0.00226049827 0.07348883541 0)
(-0.01580355622 0.1626521784 2.1458761e-21)
(-0.02665042527 0.2117904756 0)
(-0.03422339482 0.233394729 -1.35180905e-21)
(-0.03759398291 0.2377766842 6.184048474e-23)
(-0.03799685014 0.2312553538 -6.193100148e-22)
(-0.03668265666 0.2171899026 -4.756287718e-22)
(-0.03489036106 0.1968934506 8.301260081e-22)
(-0.03378837678 0.1703342393 -1.885699036e-22)
(-0.03449876206 0.136722108 0)
(-0.0381157248 0.09479673622 0)
(-0.04564992201 0.0430428655 2.410616868e-23)
(-0.05790804087 -0.02013781281 -6.007201149e-22)
(-0.07514598358 -0.09620650271 -4.30956905e-22)
(-0.09645174835 -0.1855556179 4.637864793e-22)
(-0.1183462605 -0.2853567778 -6.488739935e-22)
(-0.1332715374 -0.3838386542 9.119949496e-23)
(-0.1265350983 -0.4504358724 2.937290416e-23)
(-0.08899154069 -0.4198536386 5.660441679e-22)
(-0.0152691793 -0.2111719737 6.02078651e-22)
(-0.00518089927 0.08598045964 0)
(-0.02525550668 0.1766291196 1.465579066e-22)
(-0.0348340797 0.2205961565 -4.917147554e-23)
(-0.0364001381 0.2354859362 7.642935783e-22)
(-0.03018482868 0.2343406763 -7.005382945e-22)
(-0.01916579163 0.2241603889 4.746483931e-23)
(-0.005615147255 0.208352585 -1.01861036e-22)
(0.008569610669 0.1881241094 -3.389890606e-22)
(0.02179886437 0.1633911275 2.062823915e-22)
(0.03262781707 0.1333242735 0)
(0.03958458776 0.0966408619 0)
(0.04117013467 0.05174056426 -2.902668811e-22)
(0.03578484025 -0.003255398147 0)
(0.02198184875 -0.0705836088 -5.512189272e-22)
(-0.001264844286 -0.1525735511 -1.49237668e-23)
(-0.03310469728 -0.250594985 2.559742955e-23)
(-0.06909235695 -0.359934152 2.203145855e-22)
(-0.09227826923 -0.4575424531 4.78806981e-24)
(-0.08718089891 -0.469812942 -5.78940997e-22)
(-0.02103127145 -0.26989723 0)
(-0.01111631541 0.1085974977 0)
(-0.04248901831 0.1947151675 -8.84848271e-22)
(-0.04795528905 0.2258195512 -5.411042065e-22)
(-0.03919535917 0.2282135564 4.543819179e-22)
(-0.01877830186 0.2182328146 -1.709983835e-24)
(0.007664315931 0.2028220363 -4.561052204e-23)
(0.03667993656 0.1847619773 5.696685419e-22)
(0.0658299885 0.1647118218 -2.766892029e-23)
(0.09327131135 0.142312818 -2.069782798e-22)
(0.1173891628 0.1166274939 3.142215067e-23)
(0.1365461705 0.08641143886 -3.42591868e-23)
(0.1489669283 0.05017669014 -3.690595588e-23)
(0.1525275795 0.006159166697 3.205634813e-22)
(0.1449367044 -0.0479612705 6.119608694e-22)
(0.1235159801 -0.1153052911 -5.10117395e-22)
(0.08633533517 -0.200419565 -1.616060046e-22)
(0.03199089363 -0.3067806592 1.531306286e-22)
(-0.02362123105 -0.4239837146 7.293651182e-23)
(-0.06492413035 -0.4871612791 1.91329143e-21)
(-0.02509971702 -0.3291544746 2.954991259e-21)
(-0.02004680517 0.1460727412 -4.390208753e-23)
(-0.06416406287 0.211295586 4.41738151e-23)
(-0.05070230543 0.2177300478 1.000188974e-21)
(-0.01934097309 0.2014679987 -8.270577841e-24)
(0.02414465003 0.1809076186 0)
(0.07154122187 0.1606933356 4.363724879e-23)
(0.1190703424 0.1416495499 -2.273853301e-22)
(0.1644767352 0.1233181824 -9.027962292e-23)
(0.2062251178 0.1048117294 3.68073655e-23)
(0.2429643041 0.08507140069 -1.701655816e-23)
(0.2732207595 0.06296147652 3.429971989e-23)
(0.2952536123 0.03726293796 -6.59268406e-23)
(0.3066971073 0.006535067935 -9.303909177e-23)
(0.3049738324 -0.03087770069 1.517044925e-22)
(0.2863936259 -0.07786290987 0)
(0.2470568092 -0.139930037 1.505613278e-22)
(0.1810922241 -0.2266299752 2.56001375e-22)
(0.09604450284 -0.3443894948 0)
(-0.006697615719 -0.4552210219 -3.675634523e-21)
(-0.019224082 -0.3777537589 -2.892620738e-21)
(-0.0259195141 0.2276828809 -9.514205787e-22)
(-0.03998324763 0.2238216539 -1.388976848e-22)
(0.03656136853 0.1810585366 -2.335582744e-22)
(0.1090503048 0.1451059093 -1.193742811e-22)
(0.1817191199 0.1172445496 -4.295828685e-23)
(0.2490090742 0.09627907654 9.783188853e-23)
(0.3100336715 0.08002510438 -1.408593217e-22)
(0.3646209347 0.06656815347 1.297176142e-22)
(0.4126252509 0.05449178888 -8.62012553e-23)
(0.4536250315 0.0427089491 1.132191264e-25)
(0.4867878739 0.03032298396 1.527742485e-23)
(0.5107451379 0.01652901832 7.997208755e-23)
(0.5236597469 0.0005365141074 -1.81112474e-22)
(0.5231798024 -0.01863373273 -1.61714708e-22)
(0.5052323428 -0.04286478974 -4.262959145e-23)
(0.4658715088 -0.07633231195 0)
(0.3952696502 -0.1286089384 -1.846476541e-22)
(0.2916071051 -0.2208468098 8.148762552e-22)
(0.1197455107 -0.3525016903 1.631601447e-21)
(0.02670547261 -0.3775497979 2.172655846e-21)
(0.2142894464 0.1347447211 9.864990857e-22)
(0.2776311172 0.09870503628 0)
(0.4316592278 0.05810414888 -2.594322004e-22)
(0.5304749339 0.03846264969 -1.741667654e-22)
(0.601696575 0.02623419107 0)
(0.6571198963 0.01831923461 -6.009096867e-23)
(0.701521361 0.01313600834 6.378006422e-23)
(0.7376042509 0.009542126231 -1.800157737e-23)
(0.7669368425 0.006804463485 2.885976047e-23)
(0.7902106693 0.004464743758 2.315034479e-23)
(0.8074555017 0.0022213197 0)
(0.818262136 -0.0001500751336 -2.873034323e-23)
(0.8216499719 -0.002723848434 0)
(0.8162394199 -0.005712668744 2.738153398e-23)
(0.799133315 -0.009611382871 1.421694242e-23)
(0.7679986346 -0.01500255106 -5.799401451e-23)
(0.7106555755 -0.02502519951 -2.535660423e-22)
(0.623518398 -0.04204285405 -6.918101075e-22)
(0.423009102 -0.09182968079 0)
(0.2705674689 -0.1524021841 -2.119483712e-21)
)


// ************************************************************************* //
