/*--------------------------------*- C++ -*----------------------------------*\
  =========                 |
  \\      /  F ield         | OpenFOAM: The Open Source CFD Toolbox
   \\    /   O peration     | Website:  https://openfoam.org
    \\  /    A nd           | Version:  13
     \\/     M anipulation  |
\*---------------------------------------------------------------------------*/
FoamFile
{
    format      ascii;
    class       scalarField;
    location    "46.89";
    object      p_all;
}
// * * * * * * * * * * * * * * * * * * * * * * * * * * * * * * * * * * * * * //


400
(
1.252250942e-08
-0.0005474948674
-0.0008895485624
-0.001017029249
-0.0009381614895
-0.0006853192878
-0.0002960641355
0.0001936434968
0.0007472969045
0.001324396561
0.001879267524
0.002359030538
0.002708295164
0.002873991742
0.002814613656
0.002512174997
0.001987134486
0.001296614085
0.0006376894043
4.178555177e-05
0.0005881664738
6.866191891e-06
-0.0003568897313
-0.0004992257621
-0.0004685523496
-0.0002914601321
2.637767951e-06
0.0003844459584
0.000822580816
0.001279807273
0.001716283626
0.002080839767
0.002323078349
0.002395621115
0.00226460798
0.001921287201
0.00139241864
0.0007430520763
0.0001454082647
-0.0005172905804
0.0009524225023
0.0003080263059
-9.324036854e-05
-0.0002396020033
-0.0002334978365
-0.000104985348
0.0001218815397
0.0004257838119
0.0007829730342
0.001161454013
0.001529450698
0.001832845551
0.002021707468
0.002047298919
0.001874471908
0.00149341029
0.0009281032675
0.000235115683
-0.0004633598676
-0.001300346793
0.0009761162583
0.0002579629031
-0.0001922715458
-0.0003445775632
-0.0003538678349
-0.00025691013
-7.432309929e-05
0.0001812961828
0.0004963850872
0.0008506920109
0.001203026308
0.001510479457
0.001712265725
0.001747858337
0.001568382562
0.001150442834
0.0005058573606
-0.0003186347562
-0.001233978089
-0.002384791395
0.0004804550075
-0.0002850435307
-0.000763932034
-0.0009156173206
-0.0009366434704
-0.0008682372298
-0.0007253536927
-0.0005084292454
-0.000217177402
0.0001391443872
0.0005300915784
0.0009073859713
0.001199808749
0.001326484677
0.001211004967
0.0008001699378
7.992395253e-05
-0.0009176759147
-0.002127668512
-0.003656178482
-0.0006863687512
-0.001467179813
-0.001956237847
-0.00210728302
-0.002150047948
-0.002126693456
-0.002042321165
-0.00187971321
-0.00161760736
-0.001245572748
-0.0007791512589
-0.0002628893608
0.000220587121
0.0005614503639
0.0006377940695
0.0003414876318
-0.0003930683267
-0.001564103338
-0.003134890821
-0.005142133257
-0.002661831293
-0.003423549555
-0.003915433896
-0.004080823474
-0.004178189703
-0.00424723437
-0.004278247177
-0.004229193737
-0.004047596506
-0.003689649553
-0.003140798606
-0.002426799904
-0.001633555578
-0.0009034883321
-0.0004248818961
-0.0003987485357
-0.0009882947738
-0.00226063259
-0.004232792015
-0.006828372055
-0.005555050481
-0.006269960934
-0.006768250892
-0.006982209928
-0.007195609681
-0.007443510454
-0.00769721337
-0.007882274714
-0.007902239282
-0.007660683292
-0.00708742075
-0.006159568619
-0.00494382234
-0.003604944087
-0.002414013252
-0.001714595859
-0.001843282573
-0.003015095199
-0.005368529317
-0.008662323858
-0.009435288868
-0.01008161332
-0.0105984724
-0.01091071301
-0.01132612369
-0.01187601703
-0.01251139903
-0.01311977381
-0.01354793041
-0.01362349852
-0.01318262177
-0.01212126883
-0.01042817704
-0.008256710818
-0.005956483469
-0.004062060013
-0.003190324778
-0.003843225256
-0.006426621279
-0.0104918096
-0.01431705369
-0.01487604804
-0.01542303125
-0.01588226983
-0.01659010807
-0.01758024617
-0.01878711471
-0.02005925174
-0.02117774049
-0.02187379325
-0.02185757072
-0.0208724542
-0.01877211439
-0.01562028907
-0.01179526222
-0.008037523636
-0.005360081073
-0.00476033924
-0.007181360611
-0.01197944247
-0.02015455315
-0.02060478826
-0.02117498114
-0.02179698374
-0.02285233744
-0.02439059658
-0.0263394712
-0.02851386366
-0.03062780971
-0.03230374611
-0.03309550299
-0.03254095158
-0.03028272926
-0.02617892867
-0.02052512371
-0.01420415188
-0.008691759334
-0.005726828113
-0.007219474467
-0.0124666224
-0.02685658113
-0.02716233988
-0.02770278118
-0.02842320014
-0.02978940126
-0.03188934133
-0.03465913091
-0.03788989874
-0.04123418842
-0.04420531693
-0.04618839241
-0.04647904104
-0.04446334061
-0.03966028768
-0.03212127266
-0.02269899484
-0.01326679989
-0.006486158161
-0.005808849522
-0.010765446
-0.03433494743
-0.03441835016
-0.03478968893
-0.03540477478
-0.03689208939
-0.03941024533
-0.04292029306
-0.04719793237
-0.05184033008
-0.05625864778
-0.05968000629
-0.06119116997
-0.05977979346
-0.05465603809
-0.04544131305
-0.03269995245
-0.01845333035
-0.006246136009
-0.001674178974
-0.004873813902
-0.04261009189
-0.04227965757
-0.0421958737
-0.04229619336
-0.04351394285
-0.04611664346
-0.05009986477
-0.0552206406
-0.06101532734
-0.06679644222
-0.07164038931
-0.07441328996
-0.07383284919
-0.06867516661
-0.05807222691
-0.04206209744
-0.02244030494
-0.003257470976
0.007346824004
0.00834121994
-0.05201059534
-0.05076124843
-0.04967806873
-0.04857916311
-0.04892702914
-0.05112046274
-0.05517316535
-0.0607965196
-0.06743583221
-0.07429020328
-0.08028308388
-0.08407653834
-0.08413097031
-0.07883785475
-0.066843115
-0.04752372121
-0.02212774765
0.005501517318
0.0247151209
0.03352716139
-0.06365619048
-0.06018949181
-0.05709763882
-0.05376468255
-0.05246582301
-0.05368049607
-0.05736534932
-0.06313855432
-0.07026303171
-0.07780149811
-0.08449318979
-0.08878640381
-0.08889872232
-0.0828399954
-0.06885107723
-0.04562109696
-0.0137517726
0.02441666169
0.05553941633
0.07735565726
-0.08018674204
-0.07107530532
-0.06412156964
-0.05716587057
-0.05343202714
-0.05321611401
-0.05625987842
-0.06191491163
-0.06926006389
-0.0771180567
-0.08401332247
-0.08815278037
-0.0874812118
-0.07965692894
-0.06247977305
-0.03405068326
0.005564709504
0.05859388988
0.1058229309
0.1480676392
-0.1105081234
-0.0858554365
-0.07160741343
-0.05897244959
-0.05191485694
-0.04988461045
-0.05210442929
-0.05751059388
-0.0648614267
-0.07271031315
-0.07934173335
-0.08271502994
-0.08052075409
-0.06988765395
-0.04823271644
-0.01272274818
0.03823603221
0.1071320022
0.177978566
0.256476405
-0.1684382988
-0.09990959388
-0.07500969051
-0.05479932022
-0.04462047297
-0.04158701888
-0.04371966488
-0.04938360859
-0.05701927532
-0.06497284974
-0.07136371767
-0.07398198759
-0.07013078036
-0.05701425469
-0.0310288526
0.01192919162
0.07559938395
0.1664041532
0.2761619326
0.4377041959
-0.3984295837
-0.138100739
-0.07497184703
-0.04708986772
-0.03355095064
-0.03003177188
-0.03280399496
-0.03926682347
-0.04756062448
-0.05594118164
-0.06250219515
-0.06503125806
-0.06099648881
-0.04697027783
-0.01875706517
0.0299353193
0.106955577
0.233427167
0.4198801226
0.7800233043
)


// ************************************************************************* //
