/*--------------------------------*- C++ -*----------------------------------*\
  =========                 |
  \\      /  F ield         | OpenFOAM: The Open Source CFD Toolbox
   \\    /   O peration     | Website:  https://openfoam.org
    \\  /    A nd           | Version:  13
     \\/     M anipulation  |
\*---------------------------------------------------------------------------*/
FoamFile
{
    format      ascii;
    class       volScalarField;
    location    "4";
    object      p;
}
// * * * * * * * * * * * * * * * * * * * * * * * * * * * * * * * * * * * * * //

dimensions      [0 2 -2 0 0 0 0];

internalField   nonuniform List<scalar> 
100
(
5.75013e-09
-0.000564016
-0.000387952
0.000784606
0.00286836
0.00558164
0.008375
0.0104658
0.0111604
0.0105886
0.000583583
-0.000124601
-7.0331e-05
0.000874149
0.00267579
0.00513879
0.0077825
0.00983826
0.0105583
0.00990784
0.000228554
-0.000747135
-0.000875395
-0.00010725
0.00159496
0.00415248
0.00713292
0.00966274
0.0106956
0.00995161
-0.00175394
-0.00302034
-0.00336701
-0.00277061
-0.00105994
0.00188456
0.00573392
0.00948546
0.011563
0.0112395
-0.00593697
-0.00750935
-0.008165
-0.00789442
-0.00628761
-0.00285028
0.00236273
0.00842679
0.0130344
0.0145957
-0.0130825
-0.01492
-0.0160228
-0.0164134
-0.0152853
-0.0115151
-0.00449042
0.00546614
0.015349
0.0220209
-0.0242603
-0.0259789
-0.0273996
-0.0286437
-0.0282982
-0.0244027
-0.015013
0.00102628
0.0207562
0.0384567
-0.0416556
-0.0409473
-0.0410916
-0.0423455
-0.0422373
-0.0378487
-0.0251999
-0.000266321
0.0365678
0.0769802
-0.0732012
-0.057624
-0.0514114
-0.0505349
-0.0496833
-0.0440177
-0.0272972
0.00946529
0.0746336
0.166834
-0.154739
-0.0730041
-0.0489784
-0.0471929
-0.0472957
-0.0415058
-0.0213772
0.0307833
0.139912
0.320905
)
;

boundaryField
{
    movingWall
    {
        type            zeroGradient;
    }
    fixedWalls
    {
        type            zeroGradient;
    }
    frontAndBack
    {
        type            empty;
    }
}


// ************************************************************************* //
