/*--------------------------------*- C++ -*----------------------------------*\
  =========                 |
  \\      /  F ield         | OpenFOAM: The Open Source CFD Toolbox
   \\    /   O peration     | Website:  https://openfoam.org
    \\  /    A nd           | Version:  13
     \\/     M anipulation  |
\*---------------------------------------------------------------------------*/
FoamFile
{
    format      ascii;
    class       scalarField;
    location    "4";
    object      p_all;
}
// * * * * * * * * * * * * * * * * * * * * * * * * * * * * * * * * * * * * * //


400
(
1.493570808e-09
-0.0003296795641
-0.0006230676124
-0.0007053140416
-0.000509871071
-2.990165154e-05
0.0007186970935
0.001707606742
0.002898495457
0.004242364046
0.0056785164
0.007134226392
0.00852687818
0.00976790457
0.01077013491
0.01145862994
0.01178584718
0.01175266727
0.01144921409
0.01108993419
0.000336793847
-9.613397567e-06
-0.0002442073011
-0.0002963047901
-0.0001067172458
0.000335481316
0.001021482698
0.001929860346
0.003028196871
0.00427248901
0.005606483483
0.006962083257
0.008261495248
0.00942183002
0.01036255492
0.01101611004
0.01134210482
0.01134520139
0.0111078008
0.01073758464
0.0006430487339
0.0001886098106
-7.069779342e-05
-0.0001351208799
3.580709661e-05
0.0004472995816
0.001092141391
0.001953120703
0.00300257812
0.004200782337
0.005494813295
0.006818654263
0.008095430564
0.009241844908
0.01017574953
0.01082684429
0.01115062312
0.01114409564
0.0108751125
0.01038831149
0.0007321647638
0.0001694017587
-0.0001406795478
-0.0002365340716
-8.97912935e-05
0.0002981666227
0.000920019495
0.001761767791
0.002800058755
0.003999023836
0.005308132342
0.006661617221
0.007980135953
0.009174941937
0.01015557049
0.01084124696
0.01117613519
0.01114653631
0.01081551674
0.01020420286
0.0005067329338
-0.0001613044861
-0.0005314948282
-0.0006660631902
-0.0005422414384
-0.0001662200166
0.000454654555
0.001309405779
0.002378807404
0.003630528486
0.005015626465
0.006466794965
0.007899149782
0.00921366626
0.01030500903
0.01107435426
0.01144790226
0.01139933154
0.01099502612
0.01025087348
-8.868224451e-05
-0.0008652972044
-0.001300296497
-0.001475027213
-0.001369234903
-0.0009924415159
-0.0003511711955
0.0005473119038
0.001688539894
0.003044186637
0.004566915305
0.006186969264
0.007811726245
0.009327577487
0.01060763421
0.01152641562
0.01198344689
0.0119345275
0.011452273
0.01055503834
-0.001105210273
-0.002002059354
-0.002507525051
-0.002722829642
-0.002629953867
-0.002241349708
-0.001561691881
-0.0005930972039
0.0006563438954
0.002163930362
0.003885300467
0.005748711256
0.007653221262
0.009467293816
0.0110355478
0.01219503414
0.01280534064
0.01279258898
0.01223226222
0.01114760138
-0.002604598186
-0.003641390646
-0.004225706184
-0.004483424105
-0.004400730303
-0.003993675095
-0.003263913313
-0.002206276932
-0.0008198411353
0.0008813125411
0.002859040299
0.005041899294
0.007322961951
0.009551462519
0.0115371602
0.01306639095
0.01393895557
0.0140292301
0.01340228274
0.01208378425
-0.00466871252
-0.005872326489
-0.006546517564
-0.006850520328
-0.006779042392
-0.006353316173
-0.005570592633
-0.004415611687
-0.002874901359
-0.0009496043479
0.00133399718
0.003909157894
0.006670238554
0.009449935648
0.01201978202
0.01410121032
0.01540655323
0.01572097734
0.01506771499
0.01346390178
-0.007408361464
-0.008811398336
-0.009587187073
-0.009941824802
-0.009885861446
-0.009448156766
-0.008619781206
-0.007372046886
-0.005674982943
-0.003511908047
-0.0008912272612
0.002139733733
0.005482996214
0.008966720448
0.01232887663
0.0152154425
0.01721707114
0.01797080108
0.01739397112
0.01546593395
-0.01097535368
-0.01261303816
-0.01349773266
-0.01390263436
-0.01386587569
-0.01342703527
-0.01256849493
-0.01124455591
-0.009405119679
-0.007010681079
-0.004043177558
-0.0005197679897
0.00349030838
0.007833151821
0.01223255383
0.01626139419
0.01935480511
0.02091748485
0.02064237963
0.01840392832
-0.01558279408
-0.01748516571
-0.01846993647
-0.01890788915
-0.01888311857
-0.01844891638
-0.01757508069
-0.01619562792
-0.01423852564
-0.01163845997
-0.00834252528
-0.004327667635
0.0003966841816
0.005732141235
0.01143178443
0.01702622082
0.0217788208
0.02475786651
0.0252324037
0.02283436494
-0.02154233467
-0.02371425034
-0.02474807743
-0.02515918995
-0.02510589146
-0.02465608307
-0.02376053443
-0.02233076304
-0.02027469281
-0.01750305518
-0.01392560517
-0.009457380874
-0.004024780545
0.002385838924
0.009632620624
0.01728332746
0.02446257806
0.0298041625
0.03185300318
0.02974877162
-0.02933550515
-0.03170565974
-0.03263766242
-0.03286610223
-0.03266608594
-0.03211449552
-0.0311322534
-0.0296076623
-0.02743467483
-0.02450622189
-0.02069478721
-0.01584166099
-0.009761830534
-0.002264031072
0.006721700938
0.01694572566
0.02752151582
0.03661649342
0.04166047414
0.04091213068
-0.03975069099
-0.04204329854
-0.04249419469
-0.04218064704
-0.04155715009
-0.04068816715
-0.03944576121
-0.03769310722
-0.03531598901
-0.0321952048
-0.02816792533
-0.0229891927
-0.01634391896
-0.007800514459
0.003046031777
0.01634255633
0.03146258822
0.04624754204
0.05660369064
0.05941200063
-0.05414455887
-0.05556494454
-0.05463242026
-0.05300330154
-0.05139415601
-0.04979403573
-0.04798175996
-0.04577575635
-0.04304224062
-0.03963985133
-0.03536182004
-0.02987641888
-0.02269870412
-0.01313567093
-0.0003335155837
0.01650674708
0.03746570415
0.06053443431
0.07985712155
0.09041697055
-0.07501047774
-0.07337588285
-0.06895892515
-0.06447467776
-0.06092371457
-0.05800992251
-0.05527898286
-0.05242002261
-0.04922164219
-0.0454767662
-0.04090703162
-0.0350809598
-0.02732894195
-0.01668328764
-0.001777287975
0.01907681457
0.04727551247
0.0820205618
0.1161033049
0.1421501214
-0.1088124119
-0.09689824094
-0.08396935053
-0.0739707249
-0.06735620601
-0.0627668684
-0.05910378511
-0.05572913657
-0.05224689835
-0.0483162734
-0.04355545536
-0.03742124388
-0.02907916282
-0.01727253925
-0.0001222771665
0.02510580427
0.06180457977
0.1124244504
0.1709971685
0.2289746144
-0.1800217995
-0.1267751583
-0.09486824794
-0.07658118085
-0.06689539038
-0.06133819519
-0.05759742943
-0.05448560717
-0.05134615418
-0.04771841139
-0.04314193463
-0.03699752521
-0.02834005062
-0.015686813
0.003320750185
0.03247837532
0.07771554759
0.1478347859
0.247302658
0.3855406371
-0.3564158749
-0.1657567656
-0.09299300675
-0.06772754664
-0.0574847079
-0.05293747894
-0.05063523754
-0.04896050471
-0.04708956298
-0.04452322085
-0.04081114042
-0.03535487507
-0.02723485066
-0.01489725961
0.004246343043
0.03493402978
0.08637717045
0.1805987706
0.3548872243
0.6652537208
)


// ************************************************************************* //
