/*--------------------------------*- C++ -*----------------------------------*\
  =========                 |
  \\      /  F ield         | OpenFOAM: The Open Source CFD Toolbox
   \\    /   O peration     | Website:  https://openfoam.org
    \\  /    A nd           | Version:  13
     \\/     M anipulation  |
\*---------------------------------------------------------------------------*/
FoamFile
{
    format      ascii;
    class       scalarField;
    location    "4";
    object      p_all;
}
// * * * * * * * * * * * * * * * * * * * * * * * * * * * * * * * * * * * * * //


400
(
2.415329929e-08
-0.0003585133992
-0.0005291184069
-0.0004983750312
-0.0002857515452
7.933458966e-05
0.0005647827001
0.001140779568
0.0017787118
0.00244886083
0.003118191514
0.003749191459
0.004299925697
0.00472645478
0.004987504214
0.005052037988
0.004909533747
0.004582348323
0.004170963879
0.003707379834
0.0003866656495
5.322687498e-06
-0.0001851941133
-0.0001694344217
1.014127481e-05
0.0003287106428
0.0007591697541
0.001274906236
0.001848989772
0.002452442406
0.003052502163
0.003612497922
0.004091888549
0.004449674096
0.004649455742
0.004667077552
0.004499914696
0.004175642125
0.00377482216
0.003280135366
0.0005662017394
0.0001506748366
-6.297663242e-05
-4.835738355e-05
0.0001198086814
0.0004159795474
0.0008163037766
0.001297992509
0.001837290834
0.002407187643
0.002975805779
0.00350595487
0.003955826684
0.004283014106
0.004450243946
0.004433466311
0.004230021213
0.003864358671
0.003390977108
0.002769633267
0.0004622558737
5.645471064e-06
-0.0002343057165
-0.0002157563762
-4.345534459e-05
0.0002531908696
0.0006511957219
0.001131203187
0.001673299521
0.002253198694
0.002839633357
0.003393353704
0.003867117514
0.004210780467
0.004377872878
0.004335470051
0.004073825858
0.003612513234
0.00298920089
0.002170419065
-1.697113698e-05
-0.0005024105137
-0.0007543467245
-0.0007207991031
-0.0005306186106
-0.0002168328182
0.0001987644996
0.0007012692985
0.001276089062
0.001903262346
0.002552570851
0.003182379879
0.003736627722
0.004151677713
0.004363407013
0.004320346019
0.003997564181
0.00340750168
0.00257602179
0.001495214481
-0.0009553851696
-0.00145584261
-0.001710093204
-0.001653686857
-0.001438045874
-0.001098970887
-0.0006557475972
-0.0001168043827
0.0005114216489
0.00121651244
0.001971541606
0.002735451731
0.003440936118
0.004005570173
0.004336739543
0.004349802834
0.003990036243
0.003253932139
0.002151339088
0.0007198208512
-0.002433962155
-0.002940943403
-0.003194830572
-0.003116313967
-0.00288035954
-0.002524822018
-0.002064698172
-0.001498878803
-0.0008210629439
-3.034413922e-05
0.0008550475126
0.001811922767
0.002755028358
0.003581994362
0.004159019061
0.004345016159
0.004027218717
0.003162303154
0.001723637347
-0.0001776695881
-0.004535203157
-0.005046333758
-0.005304993332
-0.005218151486
-0.004986576361
-0.004650196761
-0.004218137872
-0.00367607651
-0.002998497969
-0.002159310578
-0.001141459285
2.552149696e-05
0.001292978821
0.002533348989
0.003558628774
0.004136791994
0.004045283659
0.003147438619
0.001328902429
-0.001186315709
-0.007340481208
-0.007857347196
-0.008133365353
-0.008066184609
-0.007886884384
-0.007639498807
-0.007327424096
-0.006920397463
-0.006366136988
-0.00560004788
-0.004557067062
-0.003203811221
-0.001554179382
0.0002752537908
0.002043695172
0.003387294124
0.003889850453
0.003216616167
0.001053137489
-0.002220282403
-0.010923789
-0.0114487593
-0.01175810837
-0.01174704746
-0.01168629077
-0.01162970747
-0.01157871937
-0.01148774024
-0.01127240708
-0.01081378484
-0.009967363151
-0.0085926604
-0.006602034435
-0.004038096342
-0.001159525736
0.00151089366
0.003251038372
0.003348082546
0.001063999076
-0.003048932602
-0.01534773915
-0.01587812309
-0.01622967977
-0.01630237545
-0.01642517548
-0.01667294907
-0.01705423452
-0.01751451471
-0.0179380961
-0.01814053532
-0.01786595604
-0.01680942544
-0.01469243671
-0.01137294898
-0.00703056343
-0.002317179222
0.001636275068
0.003482261206
0.001663706
-0.003173800253
-0.02066994875
-0.02118522563
-0.02155982151
-0.02170094787
-0.02203099125
-0.02266318214
-0.02362729603
-0.02487191967
-0.02625833003
-0.02753495189
-0.028313398
-0.02807528338
-0.02624826742
-0.0223732278
-0.01637566213
-0.008899229692
-0.001492018575
0.003597108636
0.003391123747
-0.001617625227
-0.02697400846
-0.02740494024
-0.02771718941
-0.02781326616
-0.02827264947
-0.02926908718
-0.03086876861
-0.03303613914
-0.03562124986
-0.03831314197
-0.0405880754
-0.04168831054
-0.0406755673
-0.03665841664
-0.02909911521
-0.01837238505
-0.006257331375
0.003987208456
0.007228019184
0.00340075396
-0.03445335144
-0.03460686539
-0.03463918697
-0.03440127488
-0.03474004448
-0.03591132115
-0.0380256398
-0.04106675786
-0.04487791415
-0.0490958769
-0.05307050108
-0.05581041716
-0.05600187098
-0.05226906771
-0.04345104294
-0.02935612153
-0.01159757202
0.005820823233
0.01499156364
0.01487485622
-0.04359352498
-0.04295373173
-0.04223283682
-0.04109974995
-0.04084185181
-0.04179914127
-0.04411187022
-0.04776374291
-0.05257419633
-0.05811792876
-0.06361978695
-0.06787742424
-0.06926882773
-0.06586982639
-0.05594798116
-0.03852555838
-0.01459915089
0.01183728759
0.029961063
0.03747738636
-0.05564424178
-0.05289419402
-0.05046788752
-0.04748865211
-0.04590896992
-0.04609245883
-0.04814881515
-0.05200461678
-0.05740494948
-0.06382094512
-0.07032866276
-0.07552761668
-0.07751135502
-0.07390429556
-0.06242793943
-0.04132387414
-0.01069539224
0.02673372173
0.05743167568
0.07817748683
-0.0733137348
-0.06499921312
-0.0590446292
-0.05282966492
-0.04907571445
-0.04792755863
-0.04931933002
-0.05301510457
-0.05860155947
-0.0653829059
-0.07224154697
-0.0775255551
-0.07903785044
-0.07406744995
-0.0598281256
-0.03383173843
0.004727989612
0.0562595124
0.1040337579
0.1457525582
-0.1053296056
-0.08150566379
-0.06857132981
-0.05693819081
-0.04994526991
-0.04693730658
-0.04737755092
-0.05068501114
-0.05616499528
-0.06286965121
-0.06944027788
-0.07397081564
-0.07399373367
-0.06636355231
-0.04785312989
-0.01505535789
0.03418180093
0.1022850019
0.1734922309
0.2517126412
-0.1647744154
-0.09684270281
-0.07362680065
-0.05445035875
-0.04437179085
-0.04032420089
-0.04062182967
-0.04412930294
-0.04983039143
-0.05655421237
-0.06276514908
-0.06638920756
-0.06469225391
-0.05424931103
-0.03127487789
0.008980107863
0.07076168707
0.1606282451
0.2703118197
0.4321127759
-0.3947731229
-0.1353578959
-0.07389905444
-0.047267824
-0.0339490719
-0.0295223475
-0.0305586075
-0.0349343544
-0.04130503215
-0.04838469379
-0.05459164455
-0.05784372155
-0.05550039314
-0.04401232016
-0.01858224189
0.02756073518
0.1026970026
0.2281545784
0.4143959589
0.7746963136
)


// ************************************************************************* //
