/*--------------------------------*- C++ -*----------------------------------*\
  =========                 |
  \\      /  F ield         | OpenFOAM: The Open Source CFD Toolbox
   \\    /   O peration     | Website:  https://openfoam.org
    \\  /    A nd           | Version:  13
     \\/     M anipulation  |
\*---------------------------------------------------------------------------*/
FoamFile
{
    format      ascii;
    class       surfaceScalarField;
    location    "4";
    object      phi;
}
// * * * * * * * * * * * * * * * * * * * * * * * * * * * * * * * * * * * * * //

dimensions      [0 3 -1 0 0 0 0];

internalField   nonuniform List<scalar> 
180
(
-0.000284068
0.000284066
-0.000930904
0.000646837
-0.00167077
0.000739872
-0.00227827
0.000607494
-0.00259808
0.000319815
-0.00251712
-8.09647e-05
-0.00199706
-0.000520061
-0.0011544
-0.000842652
-0.000340532
-0.000813868
-0.000340531
-0.000770665
0.00105473
-0.00221506
0.00209124
-0.00377792
0.00230273
-0.00502778
0.00185735
-0.00567156
0.000963598
-0.00550113
-0.00025139
-0.00443871
-0.00158248
-0.00268658
-0.00259478
-0.000903135
-0.00259732
-0.00124367
-0.00117729
0.00223203
-0.00326829
0.00418224
-0.00542998
0.00446441
-0.00714534
0.00357271
-0.00807284
0.0018911
-0.0079462
-0.000378029
-0.00661128
-0.0029174
-0.00420732
-0.00499874
-0.00151216
-0.00529247
-0.00275583
-0.00156306
0.00379509
-0.00422644
0.00684561
-0.00693191
0.00716988
-0.00912161
0.0057624
-0.0104439
0.00321339
-0.0105637
-0.000258183
-0.00918284
-0.00429831
-0.00621727
-0.00796431
-0.00242753
-0.00908221
-0.00518336
-0.00200768
0.00580276
-0.00523459
0.0100725
-0.00844193
0.0103772
-0.0110848
0.0084053
-0.012867
0.00499562
-0.0134003
0.000275027
-0.0122667
-0.00543189
-0.00896354
-0.0112674
-0.00390329
-0.0141425
-0.00908665
-0.00253187
0.00833463
-0.00622772
0.0137684
-0.00968765
0.0138371
-0.0124812
0.0111988
-0.0145077
0.0070221
-0.0154664
0.00123375
-0.0149321
-0.00596622
-0.0118898
-0.0143097
-0.0058727
-0.0201596
-0.0149593
-0.00310424
0.0114389
-0.00689737
0.0175615
-0.00982148
0.0167613
-0.0118467
0.013224
-0.0133312
0.00850662
-0.0144109
0.00231342
-0.0147533
-0.00562374
-0.0130541
-0.0160089
-0.0074286
-0.0257851
-0.0223879
-0.00372654
0.0151654
-0.00650752
0.0203425
-0.00683169
0.0170854
-0.00618502
0.0125773
-0.00571536
0.00803695
-0.00617907
0.00277714
-0.00752925
-0.00427357
-0.00876038
-0.0147778
-0.00656912
-0.0279764
-0.0289571
-0.00527013
0.0204355
-0.00112333
0.0161957
0.00571545
0.0102466
0.0112705
0.00702229
0.0147853
0.00452214
0.0156193
0.00194319
0.0131573
-0.00181163
0.00711507
-0.0087355
0.000291642
-0.021153
-0.0286654
0.0204355
0.0366312
0.0468779
0.0539002
0.0584223
0.0603655
0.0585539
0.0498184
0.0286654
)
;

boundaryField
{
    movingWall
    {
        type            calculated;
        value           uniform 0;
    }
    fixedWalls
    {
        type            calculated;
        value           uniform 0;
    }
    frontAndBack
    {
        type            empty;
    }
}


// ************************************************************************* //
