/*--------------------------------*- C++ -*----------------------------------*\
  =========                 |
  \\      /  F ield         | OpenFOAM: The Open Source CFD Toolbox
   \\    /   O peration     | Website:  https://openfoam.org
    \\  /    A nd           | Version:  13
     \\/     M anipulation  |
\*---------------------------------------------------------------------------*/
FoamFile
{
    format      ascii;
    class       surfaceScalarField;
    location    "4";
    object      phi;
}
// * * * * * * * * * * * * * * * * * * * * * * * * * * * * * * * * * * * * * //

dimensions      [0 3 -1 0 0 0 0];

internalField   nonuniform List<scalar> 
760
(
-1.115249283e-05
1.115226546e-05
-5.530640686e-05
4.415399224e-05
-0.0001290385953
7.373241058e-05
-0.0002180427028
8.900424915e-05
-0.0003098519642
9.180930988e-05
-0.0003959420343
8.608994033e-05
-0.0004705843044
7.464213373e-05
-0.0005297258843
5.914166868e-05
-0.0005702514009
4.052558187e-05
-0.0005896705555
1.941931578e-05
-0.0005860892996
-3.580882373e-06
-0.0005584807849
-2.760858968e-05
-0.0005070045369
-5.147633192e-05
-0.0004335744823
-7.342999585e-05
-0.000342539719
-9.103501955e-05
-0.0002415022241
-0.0001010371622
-0.0001420736828
-9.942846987e-05
-6.007245155e-05
-8.200194515e-05
-1.185550266e-05
-4.821652642e-05
-1.185478256e-05
-4.593916044e-05
5.709149809e-05
-0.0001532025487
0.0001514177972
-0.0003227714189
0.0002433014978
-0.0005241633414
0.0002903959845
-0.0007318006003
0.0002994464679
-0.0009270860102
0.0002813754006
-0.001096897441
0.0002444532753
-0.001231613993
0.0001938586898
-0.001323751116
0.0001326633761
-0.001367346244
6.301438012e-05
-0.001358001851
-1.292448173e-05
-0.001293390176
-9.222025274e-05
-0.001174203026
-0.0001706645926
-0.001005379285
-0.0002422532616
-0.0007975799129
-0.000298833975
-0.0005686493192
-0.0003299679196
-0.0003445794538
-0.0003234991948
-0.0001586925826
-0.0002678903468
-4.620003307e-05
-0.0001607113375
-5.805308732e-05
-8.09449677e-05
0.0001380366872
-0.0002624628499
0.0003329361117
-0.0005187001628
0.0004995387643
-0.0008102241274
0.0005819194254
-0.001104883797
0.0005941058736
-0.001378885224
0.000555377442
-0.001615065296
0.0004806334464
-0.001800725086
0.0003795186855
-0.00192609421
0.0002580335332
-0.00198360123
0.000120520977
-0.001967838553
-2.868762313e-05
-0.001876187492
-0.0001838707709
-0.001709853469
-0.0003369985685
-0.001475403772
-0.0004767027659
-0.001186557013
-0.000587680946
-0.0008659560401
-0.0006505691235
-0.0005463041002
-0.0006431498113
-0.0002694673581
-0.0005447260801
-8.117400777e-05
-0.0003490089373
-0.0001392259287
-0.0001080347239
0.0002460714786
-0.0003476277191
0.0005725289592
-0.0006724699023
0.0008243808924
-0.001033809843
0.0009432592856
-0.001394383808
0.0009546797204
-0.001727251197
0.0008882452995
-0.002013075245
0.0007664576269
-0.0022375179
0.0006039606631
-0.002389467522
0.0004099834915
-0.002460177568
0.000191231356
-0.002443191936
-4.567384371e-05
-0.002335014131
-0.0002920486645
-0.002136318272
-0.0005356921858
-0.001853842223
-0.0007591768139
-0.001502676154
-0.0009388487053
-0.001108630741
-0.001044617536
-0.0007099585308
-0.001041820907
-0.0003570655656
-0.0008976178415
-0.0001081748672
-0.0005978992065
-0.000247400483
-0.0001296839525
0.0003757553619
-0.0004174145688
0.0008602592209
-0.0008011697209
0.001208136178
-0.001223019764
0.001365109817
-0.001640734161
0.001372394048
-0.002024877412
0.001272388241
-0.002354793446
0.001096373341
-0.002615251243
0.0008644174579
-0.002794247514
0.0005889791395
-0.002881905362
0.0002788900965
-0.002870297196
-5.727990406e-05
-0.002754192647
-0.0004081527475
-0.002532459021
-0.0007574250058
-0.002210530439
-0.001081104931
-0.001803553304
-0.001345826485
-0.001339876749
-0.001508294464
-0.0008639409075
-0.001517759549
-0.0004368160845
-0.001324744253
-0.0001316801491
-0.0009030327943
-0.0003790810104
-0.000150248396
0.0005260037056
-0.0004836535795
0.001193664296
-0.0009247792003
0.001649261973
-0.001406306647
0.001846637821
-0.00188085016
0.001846937374
-0.002316675836
0.001708212975
-0.002692253463
0.001471949997
-0.002991907199
0.001164070949
-0.003202993841
0.000800066056
-0.00331441217
0.0003903086359
-0.00331620723
-5.548257962e-05
-0.003200418484
-0.0005239398761
-0.002962597119
-0.0009952453741
-0.002605125033
-0.001438579115
-0.002141656054
-0.001809298486
-0.001602441163
-0.002047508245
-0.001039197401
-0.002081005953
-0.0005268541432
-0.001837087475
-0.0001578407423
-0.001272044963
-0.0005369211531
-0.00017313219
0.0006991359436
-0.0005558738382
0.001576406307
-0.001059205588
0.002152593999
-0.001605460407
0.002392892698
-0.002141751911
0.002383228187
-0.002634218754
0.002200679078
-0.00306091128
0.001898641792
-0.003406203456
0.001509363221
-0.003657147264
0.001051011038
-0.003801422046
0.0005345832849
-0.003826512736
-3.03922436e-05
-0.00372075637
-0.0006296975513
-0.003474553978
-0.001241449187
-0.003084899249
-0.00182823516
-0.002561541138
-0.002332656139
-0.001935083626
-0.002673964656
-0.001265164996
-0.002750924603
-0.000644614566
-0.002457635431
-0.0001923356357
-0.001724323867
-0.0007292553295
-0.0002009204405
0.0009000564953
-0.0006411552689
0.002016641617
-0.001215929466
0.002727368629
-0.001835477532
0.003012441
-0.002440973606
0.002988723511
-0.002996785471
0.002756490345
-0.003481259731
0.002383115795
-0.003879610272
0.001907713455
-0.004179250348
0.001350650851
-0.004367000442
0.0007223325917
-0.00442738604
2.999221309e-05
-0.004344447571
-0.000712635592
-0.004101229961
-0.001484667537
-0.003686249822
-0.002243216341
-0.003101505303
-0.002917397577
-0.0023744975
-0.003400973426
-0.001571876866
-0.003553544687
-0.0008087085406
-0.003220805038
-0.000241288362
-0.002291744027
-0.0009705434433
-0.0002358552729
0.001135911916
-0.0007451146548
0.00252590149
-0.001403360967
0.003385615137
-0.002106211797
0.003715292415
-0.0027884774
0.00367098899
-0.003413457223
0.003381469578
-0.003960952507
0.002930610838
-0.004418285212
0.002365046215
-0.004774435791
0.001706800772
-0.00501642533
0.0009643220768
-0.00512562816
0.0001391934208
-0.005082218955
-0.0007560439998
-0.00485939435
-0.001707491425
-0.004433542715
-0.00266907015
-0.003793255966
-0.003557685237
-0.002956434372
-0.004237798617
-0.001992455511
-0.004517522338
-0.001041614866
-0.004171645587
-0.0003125469729
-0.003020807936
-0.001283088391
-0.0002804070243
0.001416319153
-0.0008730330155
0.003118528041
-0.001628193899
0.004140775355
-0.002423652707
0.004510751027
-0.003187639879
0.004434976577
-0.003883636966
0.004077467269
-0.004494665107
0.003541639587
-0.005012032769
0.0028824142
-0.005428121641
0.002122888215
-0.005731651671
0.001267851105
-0.005904370765
0.0003119116476
-0.005919571393
-0.0007408444071
-0.005741680144
-0.001885382904
-0.005330866197
-0.003079883484
-0.004654913508
-0.004233638091
-0.003711574729
-0.005181136794
-0.002562613467
-0.005666483532
-0.001371570799
-0.005362685124
-0.0004170596552
-0.00397531781
-0.001700148387
-0.0003378745199
0.001754193823
-0.001030829894
0.003811483838
-0.001896154558
0.005006099022
-0.002789936853
0.005404532522
-0.003634211445
0.005279251679
-0.004394767352
0.004838024511
-0.005060423648
0.00420729687
-0.005629122385
0.003451112065
-0.006099376286
0.002593141018
-0.006464494343
0.001632967354
-0.006708796571
0.0005562161927
-0.006801781318
-0.0006478574345
-0.006699518795
-0.001987647395
-0.006343617787
-0.003435786426
-0.005673334915
-0.004903923987
-0.004651668872
-0.006202800438
-0.003313358971
-0.007004793897
-0.001831716406
-0.006844324249
-0.000570054429
-0.0052369776
-0.002270203712
-0.0004131268516
0.002167320369
-0.001225862106
0.004624218523
-0.002211732396
0.005991969032
-0.003201235315
0.006394035771
-0.00411201789
0.006190034867
-0.004915785835
0.005641792432
-0.005610857113
0.004902367959
-0.006205323853
0.004045577514
-0.00670737754
0.003095195793
-0.007118878412
0.002044469555
-0.007429749735
0.0008670891229
-0.007612160518
-0.0004654459601
-0.007617005109
-0.001982804073
-0.007368664026
-0.003684126411
-0.006772757984
-0.005499829236
-0.005741153459
-0.007234403623
-0.004251574663
-0.008494371462
-0.002453046262
-0.008642854736
-0.000791419986
-0.006898605103
-0.003061623639
-0.0005136983063
0.00268101807
-0.001467477957
0.005577996812
-0.00257601551
0.007100506532
-0.003641713614
0.007459734285
-0.004582877385
0.007131198674
-0.005383436253
0.006442351686
-0.006056610487
0.005575542448
-0.006625108909
0.004614077556
-0.00711086597
0.003580952927
-0.007528569162
0.002462173173
-0.007879615392
0.001218136133
-0.00814448371
-0.0002005786308
-0.008278377097
-0.001848912375
-0.008195628562
-0.003766874632
-0.007770449749
-0.005925006503
-0.006851515894
-0.008153340731
-0.005322414826
-0.01002347266
-0.003245267156
-0.0107200038
-0.001103797889
-0.009040073826
-0.004165422316
-0.0006516109521
0.00333262865
-0.00176692266
0.006693307639
-0.002980373001
0.008313956254
-0.00406937212
0.00854873286
-0.004965262365
0.008027088122
-0.005675608341
0.007152698457
-0.006236623186
0.006136557223
-0.006691004805
0.005068459498
-0.00707827446
0.003968223872
-0.007429674955
0.002813574911
-0.007763340159
0.001551801166
-0.008074680709
0.0001107612004
-0.008336633305
-0.001586958971
-0.008468265557
-0.00363524231
-0.008327509725
-0.006065762118
-0.007702322998
-0.008778527899
-0.006350169974
-0.01137562722
-0.004156996513
-0.01291317856
-0.00152449937
-0.0116725711
-0.005689923481
-0.0008462808297
0.004178909276
-0.002134779415
0.007981805819
-0.003389794692
0.009568971678
-0.004383692638
0.009542630884
-0.005089894952
0.008733290053
-0.005560292031
0.007623093178
-0.005865710974
0.006441977647
-0.006074054646
0.005276804399
-0.00624403534
0.004138204618
-0.006423902415
0.002993441903
-0.006650838978
0.001778736908
-0.006939533988
0.0003994560449
-0.007294540177
-0.001231951338
-0.007660956272
-0.00326882726
-0.007911976965
-0.005814745553
-0.007803912659
-0.008886591292
-0.006963611778
-0.01221592748
-0.00500732732
-0.01486946407
-0.002041237124
-0.01463866614
-0.007731161138
-0.001124275186
0.005303184243
-0.002568783599
0.009426314045
-0.003697508507
0.01069769679
-0.004349238109
0.01019435978
-0.004606450939
0.008990502175
-0.004599278838
0.007615921858
-0.004445149969
0.006287850456
-0.004237152694
0.005068808364
-0.00404761315
0.00394866528
-0.003934611666
0.002880440134
-0.003947903929
0.001792030174
-0.004128274822
0.0005798290208
-0.004506942801
-0.0008532821074
-0.005085117414
-0.002690651912
-0.005795160394
-0.005104702671
-0.006425660728
-0.00825609165
-0.006524921166
-0.01211666644
-0.005388785431
-0.01600560247
-0.00254928062
-0.01747817102
-0.0102804413
-0.001509493608
0.006812677982
-0.00299594107
0.0109127625
-0.00357837693
0.01128013205
-0.003397242286
0.01001322482
-0.002782207984
0.008375468318
-0.001970644287
0.006804359329
-0.001119158882
0.00543636604
-0.0003264497402
0.004276099307
0.0003427747868
0.003279439756
0.0008396731211
0.002383540793
0.001118151929
0.001513551954
0.001121029051
0.0005769516271
0.0007950504927
-0.0005273064604
6.873107283e-05
-0.001964332035
-0.001094386795
-0.003941579547
-0.002610582837
-0.006739897374
-0.004087708656
-0.01063954073
-0.00456391926
-0.01552939191
-0.002733674734
-0.01930841497
-0.0130141175
-0.001992583973
0.008805262413
-0.002954531832
0.01187471027
-0.001939957417
0.01026556004
-9.9231295e-05
0.008172498466
0.001927942609
0.00634829446
0.00384409265
0.004888209511
0.005536416199
0.003744041712
0.006964464345
0.002848050636
0.00811380573
0.002130098196
0.008973586878
0.001523759729
0.009521531067
0.0009656075787
0.009708499161
0.0003899828607
0.009464016438
-0.0002828235432
0.008662514821
-0.001162829103
0.007143577034
-0.002422641476
0.004767204965
-0.004363525603
0.001641833171
-0.007514168936
-0.001376577532
-0.01251097745
-0.002007760803
-0.01867723398
-0.01502187665
-0.00227354662
0.01107880901
0.0004332019504
0.009167960721
0.005001620447
0.005697141384
0.009171719292
0.004002400501
0.01263617888
0.002883835717
0.01543990748
0.002084480841
0.01766875165
0.001515196682
0.01941128432
0.001105516526
0.02074006839
0.000801312638
0.02170112946
0.0005626975041
0.0223081907
0.0003585450748
0.02253545041
0.0001627218239
0.02231159809
-5.89705537e-05
0.02149231574
-0.0003435440081
0.01983257873
-0.0007629059517
0.01694844963
-0.001479397461
0.01238286355
-0.002948582029
0.006073586918
-0.0062017013
0.0001403453926
-0.01274399102
-0.01488153177
0.01107880896
0.02024676954
0.0259439113
0.02994631199
0.03283014778
0.03491462885
0.03642982548
0.0375353415
0.03833665375
0.03889935096
0.03925789539
0.03942061769
0.03936164848
0.03901810418
0.03825520106
0.03677580561
0.03382722194
0.02762552222
0.01488153231
)
;

boundaryField
{
    movingWall
    {
        type            calculated;
        value           uniform 0;
    }
    fixedWalls
    {
        type            calculated;
        value           uniform 0;
    }
    frontAndBack
    {
        type            empty;
    }
}


// ************************************************************************* //
