/*--------------------------------*- C++ -*----------------------------------*\
  =========                 |
  \\      /  F ield         | OpenFOAM: The Open Source CFD Toolbox
   \\    /   O peration     | Website:  https://openfoam.org
    \\  /    A nd           | Version:  13
     \\/     M anipulation  |
\*---------------------------------------------------------------------------*/
FoamFile
{
    format      ascii;
    class       surfaceScalarField;
    location    "4";
    object      phi_0;
}
// * * * * * * * * * * * * * * * * * * * * * * * * * * * * * * * * * * * * * //

dimensions      [0 3 -1 0 0 0 0];

internalField   nonuniform List<scalar> 
760
(
-1.358232924e-05
1.358206351e-05
-6.189528235e-05
4.831299776e-05
-0.000132542331
7.064713001e-05
-0.0002120976615
7.955543044e-05
-0.0002912702667
7.917271077e-05
-0.0003635041703
7.223393253e-05
-0.000423998024
6.049384938e-05
-0.0004689943564
4.499625349e-05
-0.0004954461992
2.645169433e-05
-0.0005010106466
5.564351068e-06
-0.0004843056799
-1.670511951e-05
-0.0004453373725
-3.896839821e-05
-0.0003860263868
-5.931099996e-05
-0.0003106547324
-7.537173199e-05
-0.0002260867975
-8.456809516e-05
-0.0001415777895
-8.450913008e-05
-6.79911304e-05
-7.358666591e-05
-1.629534019e-05
-5.169573599e-05
6.101909118e-06
-2.239719661e-05
6.102007739e-06
-5.42974116e-05
6.787947106e-05
-0.0001891032961
0.0001831189174
-0.000374542865
0.0002560866483
-0.000581904894
0.0002869174294
-0.0007889511109
0.0002862189145
-0.0009788437559
0.0002621265055
-0.001138723862
0.0002203738371
-0.001258486058
0.0001647583384
-0.001330106653
9.807213976e-05
-0.001347611721
2.306946173e-05
-0.00130765064
-5.666603808e-05
-0.001210431091
-0.0001361877749
-0.001060945635
-0.0002087963641
-0.0008699607799
-0.000266356589
-0.0006544403659
-0.0003000885469
-0.0004368726906
-0.0003020768198
-0.0002429720219
-0.0002674873143
-9.730046613e-05
-0.0001973672625
-1.719226339e-05
-0.0001025052914
-1.109029383e-05
-9.00457636e-05
0.0001579252768
-0.0003019154781
0.0003949888217
-0.0005862928755
0.0005404641737
-0.0009029180759
0.0006035427017
-0.001220081458
0.0006033823121
-0.001512979128
0.0005550241346
-0.001762069864
0.000469464434
-0.001951635597
0.0003543239128
-0.002068979871
0.0002154162752
-0.002104454154
5.854367871e-05
-0.002052279773
-0.0001088404756
-0.001911993538
-0.0002764740176
-0.001690278011
-0.0004305119074
-0.001402510768
-0.0005541239021
-0.001073470764
-0.0006291286056
-0.0007363476218
-0.0006391999294
-0.0004292917233
-0.0005745431611
-0.0001891260294
-0.000437532922
-4.31791097e-05
-0.0002484522147
-5.426948815e-05
-0.0001206861828
0.0002786114476
-0.0004019575332
0.0006762602347
-0.0007774142776
0.0009159209966
-0.001195518927
0.001021647395
-0.001616313964
0.001024177388
-0.002008501915
0.0009472121052
-0.00234700896
0.0008079714623
-0.002611080925
0.0006183958401
-0.002783244298
0.0003875797052
-0.00284934325
0.0001246427965
-0.002799641685
-0.0001585419202
-0.00263084247
-0.0004452731977
-0.00234885083
-0.0007125035701
-0.001971312625
-0.0009316621214
-0.00152924113
-0.001071200065
-0.001066402493
-0.001102038549
-0.000635228949
-0.001005716764
-0.000288722608
-0.0007840392689
-6.985230341e-05
-0.0004673225997
-0.0001241218083
-0.000149092305
0.0004277037792
-0.0004958671726
0.001023035116
-0.0009591304231
0.001379184371
-0.001476753253
0.001539270288
-0.002001564105
0.001548988234
-0.002496974297
0.001442622236
-0.002933359416
0.001244356568
-0.003285330326
0.0009703667434
-0.003530190121
0.0006324395499
-0.003647805265
0.0002422580088
-0.003622007278
-0.0001843398692
-0.00344325707
-0.0006240233931
-0.003112922688
-0.001042837912
-0.002647552207
-0.001397032511
-0.002082550583
-0.001636201611
-0.001473147702
-0.001711441474
-0.0008904336107
-0.001588430938
-0.0004109613982
-0.001263511494
-0.0001014362557
-0.000776847826
-0.0002255580247
-0.000176804255
0.0006045081469
-0.0005879161318
0.001434147022
-0.001138478329
0.001929746652
-0.001756971657
0.002157763696
-0.00239031024
0.002182326891
-0.002997965495
0.002050277499
-0.003546873346
0.001793264433
-0.004007490841
0.001430984214
-0.004351374047
0.0009763227729
-0.004550596732
0.0004414806789
-0.004579406332
-0.0001555302866
-0.004417373667
-0.0007860560518
-0.004056035724
-0.001404175777
-0.003505701125
-0.001947366973
-0.002802812868
-0.002339089808
-0.002014445546
-0.002499808852
-0.001236040131
-0.002366836343
-0.0005785308641
-0.001921020739
-0.0001452331531
-0.001210145516
-0.0003707911882
-0.0002044583939
0.0008089666117
-0.000679576382
0.001909265055
-0.001317564812
0.002567735174
-0.002038852835
0.002879051769
-0.002786055604
0.002929529662
-0.003516432618
0.002780654465
-0.0041950063
0.002471838088
-0.004788993184
0.002024971026
-0.005264070983
0.001451400527
-0.005582883117
0.0007602927035
-0.00570715455
-3.12589125e-05
-0.005599624067
-0.0008935865003
-0.005235605818
-0.001768193897
-0.004611607187
-0.002571365461
-0.003758729307
-0.003191967652
-0.002753520763
-0.003505017359
-0.001720722682
-0.003399634283
-0.0008196593239
-0.002822084075
-0.0002103659345
-0.001819438829
-0.0005811572392
-0.0002317937066
0.001040760396
-0.0007696159513
0.002447087337
-0.001493339469
0.003291458736
-0.002316614847
0.003702327162
-0.003179584038
0.003792498779
-0.004039422525
0.00364049284
-0.004861344848
0.003293760326
-0.005611027092
0.002774653159
-0.006249122954
0.002089496288
-0.006728522158
0.001239691777
-0.006994296482
0.0002345153675
-0.006990790702
-0.0008970921734
-0.006668003736
-0.002090980688
-0.005999115807
-0.003240253286
-0.004999273056
-0.004191810391
-0.003746372237
-0.004757918091
-0.002394673431
-0.004751333005
-0.001166584288
-0.00405017331
-0.0003079362131
-0.002678086983
-0.0008890935763
-0.0002580253225
0.001298785787
-0.0008548884415
0.00304395049
-0.001658398967
0.00409496921
-0.00257637051
0.004620298661
-0.00354826506
0.004764393232
-0.004533517749
0.004625745426
-0.00550014854
0.004260391033
-0.006414919678
0.003689424224
-0.007235815446
0.002910391962
-0.007907490817
0.001911367088
-0.008360303544
0.0006873281114
-0.008515387437
-0.0007420081969
-0.008293646936
-0.002312721132
-0.007634616947
-0.00389928333
-0.006522454451
-0.005303972929
-0.005019360592
-0.006261011917
-0.003298160174
-0.00647253352
-0.001652692049
-0.005695641578
-0.0004513846632
-0.003879394522
-0.001340478192
-0.0002826311564
0.00158141695
-0.0009320334558
0.003693352781
-0.001803276593
0.004966212229
-0.002798518114
0.005615540094
-0.003857994999
0.005823870053
-0.004945673755
0.005713424163
-0.006035284177
0.005350001438
-0.007098234552
0.004752374612
-0.008094117444
0.00390627476
-0.008964260791
0.00278151041
-0.009628972899
0.001352040236
-0.00998995454
-0.0003810265825
-0.009938748854
-0.002363926926
-0.009374306937
-0.004463725367
-0.008233004795
-0.00644527501
-0.006534428438
-0.0079595882
-0.004440557919
-0.00856640408
-0.002305683216
-0.007830516256
-0.0006565123064
-0.005528565385
-0.001996990393
-0.0003066633581
0.001888080269
-0.001000418616
0.004387108023
-0.001920692513
0.00588648603
-0.002962928418
0.006657775954
-0.00406908922
0.006930030862
-0.005209643741
0.006853978743
-0.00636689125
0.006507248962
-0.007521053256
0.005906536648
-0.008639419895
0.005024641305
-0.009668409128
0.00381049961
-0.01052869108
0.002212322218
-0.01111380203
0.000204084351
-0.01129484634
-0.002182882656
-0.01093170028
-0.004826871346
-0.009900539679
-0.007476435362
-0.008145796104
-0.0097143317
-0.005767464649
-0.01094473555
-0.003133254454
-0.01046472643
-0.0009402153969
-0.007721604322
-0.002937205968
-0.0003349023957
0.002222982589
-0.001066671557
0.005118877206
-0.002012014968
0.006831829377
-0.003057228795
0.007702989774
-0.004146898098
0.008019700183
-0.005259926027
0.007967006722
-0.00638988807
0.007637211046
-0.007530113519
0.007046762136
-0.008662687366
0.006157215194
-0.009750077977
0.004897890295
-0.01072848777
0.003190732078
-0.01150243562
0.0009780321879
-0.01194178023
-0.001743538059
-0.01188296324
-0.004885688223
-0.01114282494
-0.008216573628
-0.009564302056
-0.01129285471
-0.007120311166
-0.01338872643
-0.004098064501
-0.01348697312
-0.001316086604
-0.01050358219
-0.004253292636
-0.0003793268927
0.002602309393
-0.001150932185
0.005890482539
-0.002095234497
0.007776131617
-0.003086596459
0.008694351734
-0.004074853315
0.009007957072
-0.005050509333
0.008942662803
-0.00602147558
0.008608177404
-0.006998223387
0.008023509997
-0.007984283444
0.007143275329
-0.008969049934
0.005882656831
-0.009920646753
0.00414232888
-0.01077726464
0.001834650063
-0.01143495535
-0.001085847269
-0.01173771067
-0.004582932751
-0.01146616986
-0.008488114534
-0.01035919061
-0.01239983404
-0.008206456865
-0.0155414601
-0.005083782928
-0.01660964701
-0.001784246397
-0.01380311882
-0.006037538873
-0.0004645534187
0.003066862737
-0.00129427012
0.006720199249
-0.002211739372
0.008693600791
-0.003079923191
0.009562535577
-0.003862203734
0.0097902377
-0.004567678616
0.009648137772
-0.005223303623
0.009263802474
-0.00586044082
0.008660647221
-0.006508630573
0.007791465181
-0.00719134676
0.006565373084
-0.007920325869
0.004871307927
-0.00868614545
0.002600469555
-0.009439444164
-0.0003325485602
-0.01007204968
-0.003950327203
-0.0103758005
-0.00818436381
-0.01002346558
-0.0127521688
-0.00860773714
-0.01695718839
-0.00586516591
-0.01935221813
-0.00231372893
-0.01735455579
-0.008351268034
-0.0006367504362
0.003703613095
-0.001564654138
0.007648102984
-0.002423526598
0.009552473244
-0.003078324219
0.01021733325
-0.00352686704
0.01023878055
-0.00381114014
0.009932410926
-0.003984950057
0.00943761242
-0.004104135444
0.008779832606
-0.004225565994
0.007912895722
-0.004407424031
0.006747231066
-0.004707008954
0.005170892753
-0.005173700372
0.003067160981
-0.005834335561
0.0003280867502
-0.006657972226
-0.003126690537
-0.007513548123
-0.007328787864
-0.008089279035
-0.01217643783
-0.007840140849
-0.01720632684
-0.006100695351
-0.02109166372
-0.002817230602
-0.02063802043
-0.01116849848
-0.0009720468603
0.004675659884
-0.002047088222
0.008723144458
-0.002774224112
0.01027960916
-0.003069176656
0.0105122858
-0.003008384665
0.0101779886
-0.002691544921
0.009615571167
-0.002210280941
0.008956348392
-0.001647483259
0.008217034892
-0.00108461117
0.007350023611
-0.000608338242
0.006270958079
-0.0003132713875
0.004875825826
-0.0002987138383
0.003052603488
-0.0006608961918
0.0006902690863
-0.001468534173
-0.002319052728
-0.002716717225
-0.006080604725
-0.004215051539
-0.01067810341
-0.005425731574
-0.0159956468
-0.005340198232
-0.02117719693
-0.003097261383
-0.02288095753
-0.01426576005
-0.001575820285
0.006251480159
-0.002750838475
0.009898162739
-0.003101361449
0.01063013215
-0.002730616716
0.01014154106
-0.001872534496
0.009319906322
-0.0007146176454
0.008457654208
0.0006080936499
0.007633637029
0.001991179919
0.006833948634
0.003339637488
0.006001566071
0.004553169222
0.005057426289
0.005517557297
0.003911437683
0.006101253496
0.002468907302
0.006156182841
0.0006353396901
0.005533569176
-0.001696439119
0.004104679697
-0.00465171508
0.00186031852
-0.008433742275
-0.000851572677
-0.01328375578
-0.002991085804
-0.01903768367
-0.002791684989
-0.02308035804
-0.01705744503
-0.002403266334
0.008654746505
-0.003148955335
0.01064385182
-0.002361246746
0.009842423562
-0.000673793407
0.00845408767
0.001439191758
0.007206921097
0.003720641325
0.006176204607
0.006027484659
0.005326793711
0.008267630859
0.004593802466
0.01036238254
0.003906814359
0.01222427712
0.00319553158
0.01374482144
0.002390893296
0.01478805696
0.001425671875
0.01518546612
0.0002379304014
0.01474998581
-0.001260958836
0.01325863087
-0.003160360232
0.01050117298
-0.005676284314
0.006440687247
-0.009223269936
0.001798096796
-0.01439509334
-0.001199392385
-0.02008286881
-0.01825683738
-0.002113638911
0.01076838545
-5.456113672e-05
0.008584774084
0.003660963802
0.006126898627
0.007451563271
0.004663488193
0.01105263396
0.003605850451
0.01437466524
0.002854173373
0.01739609405
0.002305364908
0.02011446316
0.001875433329
0.02251578199
0.001505495484
0.0245599756
0.001151337938
0.02617382961
0.0007770392779
0.02724528616
0.0003542151982
0.02763004676
-0.0001468303918
0.02714579227
-0.0007767041043
0.02554883023
-0.001563398515
0.0225146009
-0.002642054863
0.01763171361
-0.004340382836
0.01058188584
-0.007345265512
0.002832785813
-0.01233376879
-0.01542405155
0.01076838545
0.0193531595
0.02548005812
0.03014354633
0.03374939679
0.03660357015
0.03890893506
0.04078436842
0.04228986388
0.04344120171
0.04421824105
0.04457245629
0.04442562568
0.04364892185
0.04208552313
0.03944346861
0.03510308564
0.0277578204
0.01542405148
)
;

boundaryField
{
    movingWall
    {
        type            calculated;
        value           uniform 0;
    }
    fixedWalls
    {
        type            calculated;
        value           uniform 0;
    }
    frontAndBack
    {
        type            empty;
    }
}


// ************************************************************************* //
