/*--------------------------------*- C++ -*----------------------------------*\
  =========                 |
  \\      /  F ield         | OpenFOAM: The Open Source CFD Toolbox
   \\    /   O peration     | Website:  https://openfoam.org
    \\  /    A nd           | Version:  13
     \\/     M anipulation  |
\*---------------------------------------------------------------------------*/
FoamFile
{
    format      ascii;
    class       volVectorField;
    location    "4";
    object      U;
}
// * * * * * * * * * * * * * * * * * * * * * * * * * * * * * * * * * * * * * //

dimensions      [0 1 -1 0 0 0 0];

internalField   nonuniform List<vector> 
400
(
(2.032267039e-06 1.014491775e-06 0)
(-0.0005598887356 0.0001584177688 0)
(-0.001792219256 0.0003219356026 0)
(-0.003483319368 0.0004291642945 0)
(-0.005343112105 0.0004726366367 0)
(-0.00715822659 0.0004678072315 0)
(-0.008789830711 0.0004262270243 0)
(-0.01014365802 0.000356165618 0)
(-0.01115035589 0.0002627446332 0)
(-0.01175515161 0.0001497354321 0)
(-0.01191480417 2.139660633e-05 0)
(-0.01160011426 -0.0001162720588 0)
(-0.0108017311 -0.0002540351475 0)
(-0.009538773554 -0.0003788470846 0)
(-0.007870922883 -0.0004734289903 0)
(-0.005913392861 -0.0005169420458 0)
(-0.003854137338 -0.0004883715467 0)
(-0.001971531239 -0.0003702869061 0)
(-0.0006075254296 -0.0001803007958 0)
(-6.77602449e-06 -2.800259811e-06 0)
(-0.0001466709377 0.0005649564454 0)
(-0.001725917863 0.001664333227 0)
(-0.004681178856 0.002787754536 0)
(-0.008552796494 0.003373904051 0)
(-0.012779419 0.003494303434 0)
(-0.01690786695 0.003290028558 0)
(-0.02062814674 0.002864648404 0)
(-0.02371908085 0.002280731026 0)
(-0.0260149423 0.001573688889 0)
(-0.02738487517 0.0007673802139 0)
(-0.02772748331 -0.0001139320322 0)
(-0.02697633089 -0.001037494575 0)
(-0.0251140838 -0.001954556928 0)
(-0.02219357384 -0.002795273375 0)
(-0.01836420004 -0.003463484163 0)
(-0.01390218135 -0.003833400038 0)
(-0.009235558093 -0.003754165618 0)
(-0.004966597854 -0.003076204214 0)
(-0.001753627339 -0.001779500729 0)
(-0.0001728996493 -0.0005783355067 0)
(-0.0003232782887 0.00186443405 0)
(-0.003057234797 0.0046877322 0)
(-0.007684145206 0.007203216979 0)
(-0.01336828752 0.008480610307 0)
(-0.01940705723 0.008702571465 0)
(-0.02522388232 0.008158696354 0)
(-0.03041817257 0.007075132477 0)
(-0.03469850374 0.005597752955 0)
(-0.03784675232 0.003816549134 0)
(-0.03969398562 0.001796335366 0)
(-0.04011298204 -0.0003978337141 0)
(-0.03902409737 -0.002680839727 0)
(-0.03641150494 -0.004932173801 0)
(-0.03234831215 -0.006982511705 0)
(-0.02702941003 -0.008604076604 0)
(-0.02080859535 -0.009508115634 0)
(-0.01422733299 -0.009362367594 0)
(-0.008045767136 -0.007858890851 0)
(-0.003090698004 -0.004929708563 0)
(-0.0003562447576 -0.001885671423 0)
(-0.0004720702513 0.003788143346 0)
(-0.004090129833 0.008982760552 0)
(-0.01005119614 0.01309872076 0)
(-0.01715532384 0.01508776787 0)
(-0.02458116465 0.01532353484 0)
(-0.03166693115 0.01428210441 0)
(-0.03796115755 0.01233207614 0)
(-0.04313543949 0.009715127643 0)
(-0.04694302426 0.006584533456 0)
(-0.049190782 0.003052617723 0)
(-0.0497299124 -0.0007688290934 0)
(-0.04846175787 -0.004736207846 0)
(-0.04535614073 -0.008647525021 0)
(-0.04048163873 -0.01221930166 0)
(-0.03404693282 -0.01507012895 0)
(-0.02644906915 -0.0167177879 0)
(-0.01831325794 -0.01660939121 0)
(-0.01054206711 -0.01422753477 0)
(-0.004133213955 -0.00938368835 0)
(-0.0005154427145 -0.003812756827 0)
(-0.0005916443851 0.006185319929 0)
(-0.004921336211 0.01431079391 0)
(-0.01202239074 0.02023683225 0)
(-0.02035677069 0.02296484139 0)
(-0.02898628969 0.02314221296 0)
(-0.03717322395 0.02147591694 0)
(-0.04443140724 0.01849826257 0)
(-0.05041242819 0.01455595943 0)
(-0.05485346198 0.009868387744 0)
(-0.05754252522 0.004594751551 0)
(-0.05830579367 -0.001108463075 0)
(-0.0570130379 -0.00703979241 0)
(-0.0535983988 -0.01291256002 0)
(-0.04809794457 -0.01831713867 0)
(-0.04070500654 -0.02269348523 0)
(-0.03183832193 -0.02532462898 0)
(-0.02220454633 -0.02537901256 0)
(-0.01287475662 -0.02205739558 0)
(-0.005057083868 -0.01497152147 0)
(-0.0006647782087 -0.006228339662 0)
(-0.000701085578 0.0089894083 0)
(-0.005706917307 0.02054633525 0)
(-0.01391039596 0.0285028467 0)
(-0.02345534083 0.03200928007 0)
(-0.03327857633 0.03206801925 0)
(-0.04256663968 0.02966916439 0)
(-0.05080618557 0.02553444671 0)
(-0.05763884325 0.0201240486 0)
(-0.06279356421 0.01372152037 0)
(-0.06604169821 0.006525006005 0)
(-0.06717836784 -0.001275112616 0)
(-0.06602654331 -0.009429255491 0)
(-0.06245962075 -0.01757115184 0)
(-0.05644797732 -0.02515691395 0)
(-0.048135053 -0.03141869146 0)
(-0.03793669405 -0.03534742529 0)
(-0.02664211756 -0.03574614121 0)
(-0.01553234689 -0.03142850226 0)
(-0.006093374923 -0.02171702873 0)
(-0.0008396852394 -0.009120632721 0)
(-0.0008163000598 0.01221718946 0)
(-0.006571524294 0.02771275784 0)
(-0.0159700744 0.03794333674 0)
(-0.02683139541 0.04227815895 0)
(-0.03795157674 0.04216197648 0)
(-0.04843972004 0.03892898049 0)
(-0.05776294902 0.03352136771 0)
(-0.06556363675 0.02652190399 0)
(-0.0715717635 0.01827307124 0)
(-0.07554614449 0.008997497326 0)
(-0.07724624721 -0.001100562282 0)
(-0.07643373081 -0.01174271284 0)
(-0.07289351781 -0.02249977285 0)
(-0.06648836186 -0.03269211787 0)
(-0.05726284634 -0.04131243617 0)
(-0.04558691035 -0.04698369705 0)
(-0.03231778121 -0.04801812876 0)
(-0.01898936887 -0.04268546782 0)
(-0.007463041787 -0.02989110652 0)
(-0.001076557192 -0.01259979112 0)
(-0.0009508804462 0.01594421418 0)
(-0.007608805615 0.03593680265 0)
(-0.01839084978 0.04870900347 0)
(-0.0307566527 0.05391833008 0)
(-0.0433388303 0.0535583431 0)
(-0.05516879212 0.04938119168 0)
(-0.06570692896 0.04258695871 0)
(-0.07461286619 0.03389127113 0)
(-0.08163320047 0.02368757096 0)
(-0.08652524503 0.01220219985 0)
(-0.08901337639 -0.0003777217035 0)
(-0.08878884001 -0.01377575073 0)
(-0.0855209799 -0.02753482803 0)
(-0.07891261868 -0.04085221268 0)
(-0.0688392911 -0.05245580995 0)
(-0.05554823377 -0.06051038681 0)
(-0.03991261782 -0.06266417718 0)
(-0.02374429699 -0.05640365275 0)
(-0.009406973869 -0.03999938497 0)
(-0.001418483238 -0.01689016973 0)
(-0.001116793084 0.02029234744 0)
(-0.008897318974 0.0454223399 0)
(-0.0213204073 0.06102193727 0)
(-0.03542457452 0.06712654162 0)
(-0.04965006718 0.06641859411 0)
(-0.0629548634 0.06116124146 0)
(-0.07481436467 0.0528581559 0)
(-0.08493154094 0.04236994532 0)
(-0.09309541804 0.0301310966 0)
(-0.0990850703 0.01634603028 0)
(-0.1025996872 0.001147849654 0)
(-0.1032635035 -0.01525783325 0)
(-0.1006112227 -0.03242348071 0)
(-0.09412634398 -0.04946867187 0)
(-0.0834229869 -0.06485545904 0)
(-0.06850126696 -0.07620032942 0)
(-0.05013151031 -0.08026362404 0)
(-0.03037291583 -0.07338630972 0)
(-0.01223160807 -0.05281425678 0)
(-0.001919943905 -0.02235082017 0)
(-0.001327149327 0.02542893111 0)
(-0.01051923251 0.05643447512 0)
(-0.02489110539 0.07514732063 0)
(-0.04097812494 0.08210945669 0)
(-0.05699498747 0.08088258064 0)
(-0.07183958732 0.07435994488 0)
(-0.08503713357 0.06440455729 0)
(-0.09637271541 0.05203654911 0)
(-0.1057160617 0.03772024773 0)
(-0.1129022063 0.02160732618 0)
(-0.1176540257 0.003727233908 0)
(-0.1195365833 -0.01585560642 0)
(-0.1179344602 -0.03678788254 0)
(-0.112082704 -0.05819813246 0)
(-0.10122323 -0.0783307489 0)
(-0.08493036289 -0.09419599659 0)
(-0.06365224621 -0.1014091991 0)
(-0.03954385026 -0.09464322627 0)
(-0.0163535807 -0.06943099465 0)
(-0.002652068563 -0.02952462243 0)
(-0.001600431802 0.03157779468 0)
(-0.01257907826 0.06929454631 0)
(-0.02924012879 0.09136741561 0)
(-0.047519701 0.09903786679 0)
(-0.06537435108 0.0970082645 0)
(-0.08167256086 0.08895370596 0)
(-0.09604318723 0.07716282068 0)
(-0.1084086287 0.06283229068 0)
(-0.1187740199 0.04644525475 0)
(-0.1270864098 0.02806746524 0)
(-0.1331439118 0.007564225309 0)
(-0.1365054299 -0.01520279187 0)
(-0.1364421776 -0.04011614004 0)
(-0.1319259857 -0.06645418827 0)
(-0.1217333725 -0.0923756296 0)
(-0.1047976627 -0.1143163801 0)
(-0.08090237979 -0.126517189 0)
(-0.05193473274 -0.1212979221 0)
(-0.02232533191 -0.09132206924 0)
(-0.003705707113 -0.03921562676 0)
(-0.001967500745 0.03904368989 0)
(-0.01522488224 0.08438076412 0)
(-0.03451967617 0.1099450523 0)
(-0.0550905391 0.1179777493 0)
(-0.07461687884 0.1146811367 0)
(-0.09200195894 0.1047010629 0)
(-0.1070614391 0.0908259086 0)
(-0.1199309423 0.07444636706 0)
(-0.1308223345 0.05605497871 0)
(-0.1398685648 0.0356027627 0)
(-0.1470133907 0.0127381088 0)
(-0.1519024376 -0.01297929383 0)
(-0.1537887604 -0.04180133067 0)
(-0.1514315091 -0.07336831959 0)
(-0.1431142047 -0.1060046242 0)
(-0.1269323891 -0.135775777 0)
(-0.101559575 -0.1554750791 0)
(-0.06795343962 -0.1543198167 0)
(-0.03080387015 -0.120318608 0)
(-0.005189869153 -0.05258733381 0)
(-0.002484745668 0.04825537627 0)
(-0.01867556526 0.1021269852 0)
(-0.04088900971 0.1310541792 0)
(-0.06359257021 0.1387686936 0)
(-0.08421696562 0.1334641454 0)
(-0.10183187 0.1209816021 0)
(-0.1165719535 0.1046810524 0)
(-0.1288892937 0.08615683678 0)
(-0.1392876656 0.0658990624 0)
(-0.148167757 0.04372067705 0)
(-0.1557156435 0.0190115782 0)
(-0.1617765521 -0.009061088859 0)
(-0.1657316306 -0.04124787955 0)
(-0.1662954604 -0.07781021198 0)
(-0.1613632606 -0.1176176699 0)
(-0.1481206812 -0.1568255083 0)
(-0.1236888464 -0.1870674997 0)
(-0.0871315676 -0.193930281 0)
(-0.0423805387 -0.1583689886 0)
(-0.007222327859 -0.07125518595 0)
(-0.00325941831 0.05983618187 0)
(-0.02325936731 0.1229998044 0)
(-0.04846398412 0.1546287122 0)
(-0.07258631029 0.1607917513 0)
(-0.0929715327 0.1523378032 0)
(-0.1091276204 0.1365446528 0)
(-0.1217256725 0.1173859872 0)
(-0.1316728278 0.09663898965 0)
(-0.139853893 0.07476182255 0)
(-0.1470070215 0.05140602038 0)
(-0.1536421403 0.02568111997 0)
(-0.1599187289 -0.003679564692 0)
(-0.1655340773 -0.03802995121 0)
(-0.1694384734 -0.07849295005 0)
(-0.1694431889 -0.124948089 0)
(-0.162025291 -0.1743956414 0)
(-0.142535407 -0.2181938656 0)
(-0.1070618749 -0.2385262386 0)
(-0.05710548662 -0.2067957661 0)
(-0.009900778059 -0.09729297096 0)
(-0.004495883616 0.07472183871 0)
(-0.02945938101 0.1474256806 0)
(-0.05714630572 0.1800334993 0)
(-0.08079270598 0.1825178725 0)
(-0.09818310592 0.1692515116 0)
(-0.1098266549 0.1491364546 0)
(-0.1172807351 0.1266980245 0)
(-0.1220701194 0.1037897723 0)
(-0.1255161502 0.08075552133 0)
(-0.1287025314 0.05704818397 0)
(-0.1324766567 0.0315060248 0)
(-0.1373698945 0.002472842514 0)
(-0.1435636967 -0.03207559632 0)
(-0.1505856169 -0.07418841592 0)
(-0.1566890922 -0.1251969962 0)
(-0.1582599623 -0.1839204311 0)
(-0.1492008563 -0.2430686138 0)
(-0.1218648323 -0.2831123028 0)
(-0.07340768487 -0.2646655334 0)
(-0.01319517804 -0.132955227 0)
(-0.006515926205 0.09440848265 0)
(-0.03787411177 0.1755718669 0)
(-0.0660727529 0.2053148911 0)
(-0.08481493236 0.2006317099 0)
(-0.09387664088 0.1804102943 0)
(-0.09587642912 0.155045691 0)
(-0.093710033 0.1292686121 0)
(-0.08959663735 0.1047073839 0)
(-0.08520642666 0.08140806888 0)
(-0.08182043983 0.05856029986 0)
(-0.08047523565 0.03477542777 0)
(-0.08205686498 0.008146081304 0)
(-0.08724110055 -0.02386489676 0)
(-0.09636844555 -0.06409957527 0)
(-0.1088547953 -0.1155189632 0)
(-0.1220647994 -0.1796751942 0)
(-0.1296527616 -0.2528753867 0)
(-0.120428139 -0.3176399004 0)
(-0.08599208282 -0.3260731873 0)
(-0.01651502749 -0.1797933796 0)
(-0.009823410638 0.1218209128 0)
(-0.04869922863 0.2068228102 0)
(-0.07146752987 0.2253732609 0)
(-0.07541752391 0.2083588033 0)
(-0.06660678654 0.1793208552 0)
(-0.0513694111 0.1488148443 0)
(-0.03398430274 0.1208024014 0)
(-0.01699289001 0.09609095042 0)
(-0.001959657946 0.07415306093 0)
(0.01005257977 0.05385965879 0)
(0.01816523444 0.03369381021 0)
(0.02139761996 0.0117310031 0)
(0.01873220489 -0.01456844324 0)
(0.008967850831 -0.04844616979 0)
(-0.009020073084 -0.09409206205 0)
(-0.03494035347 -0.1561111415 0)
(-0.06453974727 -0.2366592742 0)
(-0.0849499798 -0.3262698465 0)
(-0.08271971799 -0.3770285797 0)
(-0.01735891912 -0.2369490182 0)
(-0.01552863115 0.1647954017 0)
(-0.0582230283 0.2383040208 0)
(-0.05690668447 0.2289737138 0)
(-0.02577843516 0.1942766472 0)
(0.01447434654 0.1572748744 0)
(0.0547749788 0.1247078196 0)
(0.09143163595 0.09777595681 0)
(0.1229919742 0.0758426895 0)
(0.1490099777 0.05770203582 0)
(0.1693253455 0.04199504485 0)
(0.1836926885 0.02728318075 0)
(0.1914842759 0.01195358341 0)
(0.1916268197 -0.00596702754 0)
(0.1822862662 -0.02928618194 0)
(0.1606687673 -0.06218310034 0)
(0.1237143543 -0.111187491 0)
(0.07013581362 -0.1851750697 0)
(0.009835508779 -0.2891301368 0)
(-0.04244153758 -0.3929151946 0)
(-0.007747587412 -0.2982273535 0)
(-0.01931625393 0.2181890908 0)
(-0.03100918117 0.2427790972 0)
(0.04972953769 0.1817293692 0)
(0.1390669098 0.136205794 0)
(0.2161234079 0.1016234606 0)
(0.2791530326 0.07562977809 0)
(0.3295259684 0.05633199795 0)
(0.3692089782 0.04195965018 0)
(0.3999149795 0.03100172117 0)
(0.4228841363 0.02222582419 0)
(0.4387696052 0.01458954499 0)
(0.4475254607 0.007107254259 0)
(0.4483001551 -0.001236248558 0)
(0.4391364681 -0.01201939976 0)
(0.4163626425 -0.02774747395 0)
(0.3741408949 -0.05370201695 0)
(0.3033716844 -0.102306424 0)
(0.2009381167 -0.1971720013 0)
(0.06265254541 -0.3433636471 0)
(0.04081762266 -0.3137232566 0)
(0.2463313778 0.1107936413 0)
(0.323137418 0.1029250599 0)
(0.4588005601 0.06538980526 0)
(0.5608710423 0.0442880297 0)
(0.6300502841 0.03147634815 0)
(0.6789896582 0.02289620854 0)
(0.7143455477 0.01695318837 0)
(0.7401143081 0.01274175212 0)
(0.7588991175 0.009678028813 0)
(0.7723763445 0.00737191282 0)
(0.781531643 0.005545171168 0)
(0.7867954398 0.003981920647 0)
(0.7880093616 0.002498853794 0)
(0.7843583394 0.0008724291089 0)
(0.7738391901 -0.001259309462 0)
(0.752596057 -0.004342788237 0)
(0.7099923799 -0.01089202298 0)
(0.6305982599 -0.02425769819 0)
(0.4640125645 -0.0709053826 0)
(0.3087660218 -0.1188516319 0)
)
;

boundaryField
{
    movingWall
    {
        type            fixedValue;
        value           uniform (1 0 0);
    }
    fixedWalls
    {
        type            fixedValue;
        value           uniform (0 0 0);
    }
    frontAndBack
    {
        type            empty;
    }
}


// ************************************************************************* //
