/*--------------------------------*- C++ -*----------------------------------*\
  =========                 |
  \\      /  F ield         | OpenFOAM: The Open Source CFD Toolbox
   \\    /   O peration     | Website:  https://openfoam.org
    \\  /    A nd           | Version:  13
     \\/     M anipulation  |
\*---------------------------------------------------------------------------*/
FoamFile
{
    format      ascii;
    class       vectorField;
    location    "4";
    object      U_all;
}
// * * * * * * * * * * * * * * * * * * * * * * * * * * * * * * * * * * * * * //


400
(
(-2.19606721e-05 1.706794055e-05 0)
(-0.0006196625223 0.0003746018604 -1.01363409e-23)
(-0.00182269426 0.0007544232646 0)
(-0.00326717912 0.001042759714 0)
(-0.00474451233 0.001202812434 8.788159395e-26)
(-0.006122760155 0.001223558292 3.494352607e-24)
(-0.00731212624 0.001110991228 1.45712517e-23)
(-0.008247697852 0.0008820147808 3.145818751e-23)
(-0.008877645593 0.0005620203629 -4.275979758e-25)
(-0.009159211102 0.0001837857269 -7.484285558e-24)
(-0.009060519422 -0.0002132649875 9.959481837e-24)
(-0.008566532271 -0.0005847666381 -9.621031845e-23)
(-0.007687989232 -0.0008843822075 -1.092852431e-22)
(-0.006471338905 -0.001069500891 -1.281541704e-22)
(-0.005006929386 -0.001108948747 8.202748905e-24)
(-0.003432828331 -0.0009921283947 -8.425772344e-24)
(-0.001930718702 -0.0007375777454 -5.233152002e-22)
(-0.0007171983273 -0.000394938753 0)
(4.820394197e-05 -5.544238029e-05 1.764391141e-24)
(0.0001153710425 0.000152785131 -2.146114554e-22)
(-0.000209801359 0.0007525087872 9.110469866e-26)
(-0.002110077819 0.002702625506 1.022222579e-23)
(-0.005273572852 0.004320635643 7.9943578e-26)
(-0.009034761839 0.005326496683 -1.409529923e-25)
(-0.01288722476 0.005714309074 -6.81260901e-27)
(-0.01650389709 0.005532483789 -5.857469358e-24)
(-0.0196451963 0.004850492221 2.074872898e-23)
(-0.02213281763 0.003748264894 -3.064347288e-23)
(-0.02382647766 0.002317519357 2.328768573e-23)
(-0.02461447762 0.0006672894394 8.522557208e-24)
(-0.02441716422 -0.001070862902 -1.085872804e-23)
(-0.02319995673 -0.002741374445 7.054684932e-25)
(-0.02099390906 -0.004169806787 5.971473007e-23)
(-0.01791886013 -0.00517816463 -3.816975395e-24)
(-0.01420162686 -0.005610250081 7.817245168e-24)
(-0.01018242381 -0.005366500795 -2.589170493e-22)
(-0.006298808061 -0.004443806821 2.682541593e-22)
(-0.003041115325 -0.00297517469 -3.562394278e-24)
(-0.0008044586885 -0.001268997461 3.65221234e-24)
(-2.452781127e-05 6.510221327e-05 0)
(-0.0002943726106 0.002331427484 -1.656525864e-25)
(-0.00338969204 0.006675201957 4.803114915e-24)
(-0.008255773067 0.009856265575 -8.563718434e-24)
(-0.01400307073 0.0116656677 3.085581076e-26)
(-0.01989788597 0.01219889869 -3.03135434e-26)
(-0.02546743709 0.01161097306 5.226323156e-25)
(-0.03035020264 0.01006615508 -1.990462963e-23)
(-0.03426845805 0.007725786622 -1.758530716e-24)
(-0.03699926763 0.004758210612 -2.440416512e-23)
(-0.03836240051 0.001356780391 0)
(-0.0382253619 -0.00224285359 0)
(-0.03652271606 -0.005752778619 4.866992214e-23)
(-0.03328728829 -0.008836009146 5.2032109e-23)
(-0.02868540387 -0.01113063933 -3.666155755e-24)
(-0.02304541295 -0.01229602165 1.236762929e-22)
(-0.01686802753 -0.01208268768 2.509879109e-22)
(-0.01080135454 -0.01041921293 2.29556413e-22)
(-0.005566644155 -0.007504427316 6.872309574e-24)
(-0.001793666417 -0.003889632586 -3.327761427e-24)
(-0.0001285695126 -0.0006251408535 0)
(-0.000327340587 0.004548193097 -1.297631757e-23)
(-0.004482121765 0.01202641367 -4.59449985e-24)
(-0.0109086279 0.01713370252 8.415418163e-24)
(-0.01849122831 0.01988232558 0)
(-0.02629374085 0.02054405203 0)
(-0.03372356438 0.01942280003 0)
(-0.04032023821 0.01680022774 -7.481745808e-25)
(-0.04572085986 0.01292872353 1.295332786e-23)
(-0.0496228107 0.008055452738 0)
(-0.05176814288 0.002458985176 6.867088981e-24)
(-0.05195017339 -0.003514135439 6.436943861e-25)
(-0.05003929549 -0.009425044561 -6.454976351e-25)
(-0.04602776193 -0.01473654789 0)
(-0.04008330845 -0.01884483244 1.12410694e-22)
(-0.03259699601 -0.02114963991 -1.200253e-22)
(-0.02421008985 -0.02117169788 -1.229963063e-22)
(-0.01579240927 -0.01870795967 -2.327210424e-22)
(-0.008346345909 -0.01399876803 4.864539794e-25)
(-0.002828765633 -0.007859913639 -1.601741526e-22)
(-0.0002038115986 -0.001817412572 0)
(-0.0003336611012 0.00734655923 1.306075175e-23)
(-0.005480974087 0.01865867578 5.744393494e-25)
(-0.01339959945 0.02606889983 -5.613183762e-25)
(-0.02276315972 0.0299241755 0)
(-0.03245526531 0.03074995539 3.229608307e-25)
(-0.04178340423 0.02903988776 -3.184814743e-25)
(-0.05020840828 0.02520787151 6.534103735e-24)
(-0.05729488925 0.01959484955 -1.608072479e-23)
(-0.06266028968 0.01251412409 -6.337448539e-24)
(-0.06595194237 0.004314419059 -6.87508568e-24)
(-0.06685404904 -0.004555168012 0)
(-0.0651194404 -0.01349718775 1.434695977e-24)
(-0.06063295784 -0.02173813148 4.972585451e-23)
(-0.05349487658 -0.02836240447 -1.193923207e-22)
(-0.04410394338 -0.03240558055 7.310798745e-24)
(-0.0332239767 -0.03303281723 2.388144614e-22)
(-0.02198773522 -0.02979275819 -3.645507976e-24)
(-0.01178789329 -0.0229014075 0)
(-0.004071340638 -0.01345663543 2.548840388e-23)
(-0.0002710452559 -0.003578088737 6.391807176e-23)
(-0.0003334937033 0.01070414279 9.968409329e-23)
(-0.006448375134 0.02654627514 -5.501974452e-25)
(-0.01583306117 0.03666628801 0)
(-0.02697779939 0.04184281889 0)
(-0.03860779341 0.04293300473 -5.959399391e-23)
(-0.04995438022 0.04066154683 -4.858884289e-23)
(-0.06042258441 0.0355844618 -7.226274613e-24)
(-0.0695197909 0.02811683042 4.303884896e-24)
(-0.07678422387 0.0186073461 5.852722398e-24)
(-0.08174871863 0.007437421972 1.962073478e-24)
(-0.08394534213 -0.004873651742 -5.165997885e-24)
(-0.08293900798 -0.01758351669 -1.460904572e-23)
(-0.0784147478 -0.02965345052 -6.558925829e-24)
(-0.07030499817 -0.0397747944 -1.02137811e-22)
(-0.05892733021 -0.04647378634 0)
(-0.04512564883 -0.04836131752 -1.231942007e-22)
(-0.03033774127 -0.04452817041 3.653895567e-24)
(-0.01649632171 -0.03502224592 0)
(-0.005789218199 -0.02122936155 1.375670775e-22)
(-0.0003644354911 -0.006080521055 -7.985595482e-23)
(-0.0003353947257 0.01461594387 -9.895198159e-23)
(-0.007407606466 0.03568444642 2.333656279e-22)
(-0.0182444629 0.04893902294 1.214836603e-22)
(-0.0311797088 0.05569411962 2.628778697e-24)
(-0.04480560214 0.05721866838 -5.156359768e-23)
(-0.05830827824 0.05451085727 5.131461353e-23)
(-0.07106726196 0.04827420765 -1.933713519e-24)
(-0.08255598988 0.03897125133 -4.851478658e-25)
(-0.09224219622 0.02693469625 5.71305398e-25)
(-0.09953109257 0.01251208744 -2.052817157e-24)
(-0.1037634293 -0.003774941864 4.684255235e-24)
(-0.1042381156 -0.02106702276 1.606307725e-23)
(-0.1003280285 -0.03807625893 -1.796649458e-23)
(-0.09166507198 -0.05301974877 1.493258251e-22)
(-0.07834509834 -0.06373380908 -3.294033663e-24)
(-0.06118910268 -0.06798838217 0)
(-0.04193644567 -0.06406815116 0)
(-0.02321786542 -0.05156214909 2.1760694e-24)
(-0.008320713478 -0.03208018966 -2.224283212e-24)
(-0.0005148970157 -0.009665467273 5.567234937e-23)
(-0.0003410501166 0.01907776764 0)
(-0.008348473257 0.0460570538 1.481737409e-22)
(-0.02059831834 0.06287298674 6.591235878e-23)
(-0.03528952402 0.07149181923 0)
(-0.05090986795 0.07368213178 1.08595094e-22)
(-0.06663745429 0.07076270141 0)
(-0.08186555699 0.06358880962 -8.119686339e-23)
(-0.09606925792 0.05263489315 3.302786746e-24)
(-0.1086714318 0.0381484777 0)
(-0.1189576806 0.02035027685 0)
(-0.1260372257 -0.0003371521628 -1.159944504e-25)
(-0.1288992059 -0.02304132025 3.903687328e-25)
(-0.1265129838 -0.04625901649 -2.55646756e-23)
(-0.1180349556 -0.06769344619 -2.487291094e-23)
(-0.1031454874 -0.08431005945 2.593708034e-24)
(-0.08244289813 -0.09267649478 -3.527230936e-24)
(-0.05784855331 -0.08974541377 3.582837704e-24)
(-0.03278008388 -0.07410197298 0)
(-0.01207403049 -0.0473157269 -2.709590829e-26)
(-0.0007581071114 -0.01487629619 -1.39217054e-22)
(-0.0003510865615 0.024071637 0)
(-0.009242306807 0.0576075168 -9.471026027e-23)
(-0.02280545284 0.07838362402 -4.756279171e-22)
(-0.03911800468 0.08914513513 -2.777266162e-22)
(-0.0565897492 0.09226200727 0)
(-0.07443028314 0.08943077036 2.690940266e-22)
(-0.0920923481 0.08166765022 7.161454752e-23)
(-0.1091006135 0.06942222979 -2.781910508e-24)
(-0.1248785291 0.05277866698 2.768144885e-24)
(-0.138629153 0.03171834203 0)
(-0.1492694867 0.006428615095 1.207593444e-23)
(-0.15545558 -0.02236385014 9.914269776e-25)
(-0.1556831359 -0.05304164118 -2.775780243e-24)
(-0.1485161806 -0.08284038581 -1.89225535e-23)
(-0.1329856563 -0.1077416725 1.197142007e-23)
(-0.1091490159 -0.1227413465 0)
(-0.07878688589 -0.1227626421 0)
(-0.04597570106 -0.1044607943 0)
(-0.01753066542 -0.06865708127 0)
(-0.001144353868 -0.02250271753 9.921275421e-23)
(-0.0003701784393 0.02956250575 0)
(-0.01006755654 0.07022344482 -2.703316083e-22)
(-0.02476342045 0.09527989663 6.82855343e-22)
(-0.0424133604 0.108394329 2.673555708e-22)
(-0.06136672608 0.1126607121 0)
(-0.08090181546 0.1102266321 -2.529530125e-22)
(-0.1005780985 0.102291235 -1.953525584e-23)
(-0.1200272513 0.0892533949 1.993870971e-22)
(-0.1387428107 0.07096378821 9.991906964e-23)
(-0.155927861 0.04705146308 -2.180028939e-23)
(-0.1703975977 0.01731435141 1.107561487e-23)
(-0.1805590402 -0.01783828731 -3.168996923e-24)
(-0.1844807465 -0.05689507889 1.460126415e-22)
(-0.1800911387 -0.09679849485 0)
(-0.1655741551 -0.132602611 -1.197712356e-23)
(-0.1400443115 -0.1574966486 -2.055093782e-24)
(-0.1045595073 -0.1636203307 2.085699027e-24)
(-0.06331053606 -0.1443237023 -9.92546205e-23)
(-0.0252256302 -0.0981553722 1.997069218e-24)
(-0.001753148019 -0.03363082573 0)
(-0.0004145817827 0.03551557233 0)
(-0.01085265054 0.08374687565 0)
(-0.02642704952 0.113248124 -3.842870738e-22)
(-0.0449522312 0.1287578639 -1.424224075e-23)
(-0.06471981613 0.1342486612 1.428358344e-23)
(-0.08511012333 0.1324142683 -1.41149058e-23)
(-0.1058330698 0.124679021 -1.460412743e-23)
(-0.1266874075 0.1113908265 -1.801766561e-22)
(-0.1473243398 0.09212953423 5.005792507e-23)
(-0.1670735651 0.06609408531 2.412618741e-23)
(-0.1848172133 0.03256379922 -2.319283593e-23)
(-0.1989164536 -0.008565719036 0)
(-0.2072145567 -0.05616929776 -5.552687958e-24)
(-0.2071338684 -0.1072355465 0)
(-0.1959597497 -0.1562271649 -1.637363193e-22)
(-0.1714943732 -0.1946338737 1.590249749e-22)
(-0.133285072 -0.2112776925 0)
(-0.08452714143 -0.1945239432 9.722021201e-23)
(-0.03565659061 -0.1379122066 -7.297874764e-23)
(-0.002714889454 -0.04968513047 -6.987218943e-23)
(-0.0005257287804 0.04194734249 0)
(-0.01174421226 0.09802434593 7.243829405e-22)
(-0.02791456985 0.1318678498 -1.901692018e-23)
(-0.04667798887 0.1495062662 7.126051809e-22)
(-0.06625879766 0.1559973702 -1.887485048e-23)
(-0.08617904256 0.1547010175 1.975020739e-23)
(-0.1063411476 0.147331216 -1.956989273e-23)
(-0.1267680573 0.1342201079 -1.073484766e-23)
(-0.1473617936 0.1146942134 -3.384311578e-22)
(-0.1677309607 0.0875147889 -5.608723858e-24)
(-0.1870521758 0.05138432352 5.879525448e-24)
(-0.2039523304 0.005531973314 2.160541783e-22)
(-0.2164108913 -0.04960239172 -3.509647107e-22)
(-0.2217017806 -0.1115344663 0)
(-0.2164369606 -0.1747975703 4.703047412e-22)
(-0.1969715296 -0.2298307728 -1.505404969e-22)
(-0.1605834625 -0.2622389055 -4.538772312e-24)
(-0.1078768881 -0.2539411185 0)
(-0.04903645498 -0.1894534374 7.322929318e-23)
(-0.00423802282 -0.07241890127 6.939206469e-23)
(-0.0007963516177 0.04903196956 1.226764602e-23)
(-0.01311068695 0.1130110046 -6.913893736e-22)
(-0.02964458536 0.1506675928 -9.362519215e-22)
(-0.04786396727 0.1696750674 -6.689748628e-22)
(-0.06592748028 0.1764699527 0)
(-0.08357859459 0.1752196259 2.567022063e-23)
(-0.1009693518 0.1680041899 -5.247993976e-23)
(-0.1184024187 0.1552062007 4.128618365e-23)
(-0.1361130044 0.1359776138 2.005331373e-22)
(-0.1541297059 0.1087251944 -7.717487209e-24)
(-0.1721527904 0.07162650864 0)
(-0.1894165906 0.02320197794 -2.335596984e-22)
(-0.2044896764 -0.03701499058 5.176133674e-22)
(-0.2150604145 -0.1075954305 6.347199343e-22)
(-0.2176425914 -0.1840473925 -3.106269722e-22)
(-0.2074799081 -0.2570175273 3.296676418e-22)
(-0.1792557241 -0.3100359619 9.778175798e-25)
(-0.129338668 -0.318235585 -9.935878246e-25)
(-0.06479267539 -0.2526136644 -3.217912469e-22)
(-0.00662511029 -0.1037606539 0)
(-0.001419778402 0.05729159192 -1.55507956e-23)
(-0.01569191808 0.1289158016 -1.106634683e-21)
(-0.03247550052 0.1691805577 8.863691876e-22)
(-0.04922897691 0.1880760241 5.586476362e-22)
(-0.06411844874 0.1938462485 4.922443197e-22)
(-0.07729461767 0.1916074732 5.310184191e-22)
(-0.08926544649 0.1838613203 -3.348742511e-23)
(-0.1006787052 0.1711079625 -2.657013843e-22)
(-0.112160635 0.1524401979 1.632967172e-22)
(-0.124244405 0.1260686668 0)
(-0.1372989799 0.08981326426 0)
(-0.151412709 0.04160277445 2.072551877e-22)
(-0.1661483271 -0.01996874094 9.621585381e-23)
(-0.180230657 -0.09493359068 -1.617871987e-22)
(-0.1909259022 -0.180643321 -4.087078081e-23)
(-0.1933129154 -0.2696462502 1.56833942e-22)
(-0.180043645 -0.3457438223 -2.012588067e-22)
(-0.1422803878 -0.37905385 -1.254308585e-22)
(-0.08081511108 -0.3239814845 3.213510627e-22)
(-0.0102313084 -0.1454033845 -7.542627779e-22)
(-0.002793565914 0.06795015388 0)
(-0.02079898949 0.1464073312 1.813194294e-21)
(-0.03774194776 0.1869887436 0)
(-0.05179126663 0.2032867818 -1.148075301e-21)
(-0.06138590551 0.2059597526 7.715155283e-23)
(-0.06747337656 0.2011551813 -4.945721928e-22)
(-0.07110970539 0.1917667953 -3.88081694e-22)
(-0.07337363584 0.1784217569 6.52927873e-22)
(-0.07530630029 0.1602466078 -1.424391683e-22)
(-0.07794091095 0.135429 0)
(-0.08230951424 0.1016637195 0)
(-0.08939144338 0.0565465954 3.306665955e-23)
(-0.09996453891 -0.002057756482 -4.789271481e-22)
(-0.114189605 -0.07560978209 -3.432203116e-22)
(-0.1309379313 -0.1638478404 4.046209436e-22)
(-0.1465825794 -0.2628297666 -4.918812149e-22)
(-0.1534733316 -0.3598598876 2.952884118e-23)
(-0.1379939994 -0.4244946021 1.439169769e-22)
(-0.09270795034 -0.3953301018 6.12369858e-22)
(-0.01530417909 -0.1979687414 7.528411683e-22)
(-0.005640313598 0.08336320722 0)
(-0.03043457846 0.1663903332 1.590443812e-22)
(-0.04680030557 0.2031540712 -4.344920515e-23)
(-0.05585979088 0.2130605213 6.624743038e-22)
(-0.0569900778 0.2098783037 -5.994075977e-22)
(-0.05264474969 0.2006327569 4.028516935e-23)
(-0.04471149956 0.1883764863 -1.000872347e-22)
(-0.03478667911 0.1737352857 -2.711587639e-22)
(-0.02429494017 0.1558703361 1.718418514e-22)
(-0.01466201786 0.1330610604 0)
(-0.007421555893 0.1030892765 0)
(-0.004263681386 0.06351781162 -2.40822361e-22)
(-0.007029835838 0.01189699966 0)
(-0.01736945344 -0.05411657351 -5.019681571e-22)
(-0.03627094831 -0.1364417114 1.325354548e-23)
(-0.0627417593 -0.2354230866 2.242509471e-23)
(-0.09160265411 -0.3450312878 1.471798783e-22)
(-0.1066576214 -0.4409881982 7.168644616e-24)
(-0.09331143822 -0.4528248979 -6.304214172e-22)
(-0.02146093454 -0.259204395 0)
(-0.01134556751 0.1086505409 0)
(-0.04660233891 0.1902847935 -7.935577083e-22)
(-0.05823721544 0.2158393943 -5.074077108e-22)
(-0.05669910665 0.2137919607 4.283182201e-22)
(-0.0436324099 0.2014822498 -2.120368312e-24)
(-0.02399224817 0.186080465 -4.148777299e-23)
(-0.000678328935 0.1701625164 4.950379109e-22)
(0.0242729722 0.1539831813 -2.354488695e-23)
(0.04924675058 0.1365870213 -1.715683594e-22)
(0.07267671904 0.1163503535 2.689879703e-23)
(0.09281010797 0.09127689898 -2.971547201e-23)
(0.1075848033 0.05916739839 -3.29006114e-23)
(0.1145151701 0.01771931427 2.912890453e-22)
(0.1108620459 -0.03559319545 5.591782167e-22)
(0.09368251036 -0.1037535291 -4.755619993e-22)
(0.06087494449 -0.1906576716 -1.689061687e-22)
(0.01233390622 -0.298494162 1.360380139e-22)
(-0.03710971723 -0.4158210381 7.111049785e-23)
(-0.07184209751 -0.4779704747 1.870878182e-21)
(-0.02588013993 -0.3222194869 2.903377425e-21)
(-0.01986550286 0.1476972763 -4.177251913e-23)
(-0.06581189737 0.2109764054 4.203125397e-23)
(-0.0563658877 0.2137945613 9.558056854e-22)
(-0.0304787818 0.1940172463 5.661330946e-24)
(0.00687555571 0.1712313357 0)
(0.04818208513 0.1503768764 4.035554667e-23)
(0.09031366653 0.1322253503 -2.043144864e-22)
(0.1315468633 0.1160787107 -8.007985934e-23)
(0.1706982718 0.1006666943 3.207518121e-23)
(0.2065808535 0.08445808082 -1.443335374e-23)
(0.2376900103 0.06579257999 2.975063905e-23)
(0.2620475471 0.04293775067 -5.905584859e-23)
(0.276962748 0.01407740011 -8.210494701e-23)
(0.2792957655 -0.02282189367 1.452903952e-22)
(0.2649168022 -0.07051643307 0)
(0.229521042 -0.1342107461 1.606229903e-22)
(0.1674283631 -0.2225389817 2.392304045e-22)
(0.08622694654 -0.341667377 0)
(-0.01204042299 -0.4518935446 -3.593333514e-21)
(-0.02002876463 -0.3747668096 -2.842022887e-21)
(-0.02549298999 0.229217942 -9.398623084e-22)
(-0.03900123181 0.2251344126 -1.353859716e-22)
(0.03644791752 0.180625176 -2.23467894e-22)
(0.1060050975 0.1426766875 -1.123657419e-22)
(0.1746276395 0.1133349199 -4.269977349e-23)
(0.237255298 0.09168309549 9.44486555e-23)
(0.2937113555 0.07558412805 -1.309182483e-22)
(0.3444435922 0.06302127632 1.159791461e-22)
(0.3897749158 0.05238134544 -7.503917533e-23)
(0.4295749028 0.0423204914 1.518518588e-25)
(0.4630949785 0.03164922478 1.357616375e-23)
(0.4888877889 0.01927272888 7.168608123e-23)
(0.5046479852 0.00415121851 -1.675346732e-22)
(0.5076110489 -0.01480027892 -1.545111524e-22)
(0.4933362771 -0.0394838117 -4.269042393e-23)
(0.4572059223 -0.07395793817 0)
(0.3891497634 -0.1274102747 -1.648390556e-22)
(0.2873149364 -0.2205965673 7.906334837e-22)
(0.1170589499 -0.3522296031 1.594482099e-21)
(0.02604360649 -0.3771326693 2.153179727e-21)
(0.2147158974 0.1351619941 9.737591253e-22)
(0.2791033662 0.09931952809 0)
(0.4335095122 0.05842743241 -2.551846579e-22)
(0.5316218696 0.03843882039 -1.738735422e-22)
(0.6011552887 0.02591940812 0)
(0.6542731082 0.01784876254 -5.860358256e-23)
(0.6962408395 0.01266381864 5.932684981e-23)
(0.7302100492 0.009204999071 -1.580686035e-23)
(0.7580943653 0.006698925963 2.532126496e-23)
(0.7807940664 0.004634537514 2.007817092e-23)
(0.7983969617 0.002645840913 0)
(0.81037636 0.0004606794399 -2.567641017e-23)
(0.8155462471 -0.002122990099 0)
(0.812218465 -0.005149675993 2.607758605e-23)
(0.7970299617 -0.009196498883 1.558936432e-23)
(0.7673282136 -0.01482385037 -5.518639941e-23)
(0.710751429 -0.02506977105 -2.408537426e-22)
(0.6237262217 -0.04223467975 -6.726997065e-22)
(0.4229664012 -0.09203441951 0)
(0.2705071153 -0.1525045811 -2.10048236e-21)
)


// ************************************************************************* //
