/*--------------------------------*- C++ -*----------------------------------*\
  =========                 |
  \\      /  F ield         | OpenFOAM: The Open Source CFD Toolbox
   \\    /   O peration     | Website:  https://openfoam.org
    \\  /    A nd           | Version:  13
     \\/     M anipulation  |
\*---------------------------------------------------------------------------*/
FoamFile
{
    format      ascii;
    class       vectorField;
    location    "21.78";
    object      U_all;
}
// * * * * * * * * * * * * * * * * * * * * * * * * * * * * * * * * * * * * * //


400
(
(1.081162488e-05 -3.790972959e-05 0)
(-0.0006662205894 0.0004129778858 -1.539826467e-23)
(-0.002185094578 0.0009202388361 0)
(-0.004047165709 0.001312540182 0)
(-0.005970810772 0.001534777722 6.824620648e-25)
(-0.007761380731 0.001569552644 4.153517104e-24)
(-0.009282876459 0.001423299979 -7.307548984e-24)
(-0.01043410894 0.001119523872 7.599056408e-24)
(-0.01113493627 0.0006959693954 -2.100835482e-25)
(-0.01132531014 0.0002030573665 -4.002988826e-24)
(-0.01097016678 -0.0003001681182 5.812804837e-24)
(-0.0100710206 -0.0007473895143 -5.937196136e-23)
(-0.008678942628 -0.001075408637 -6.560771338e-23)
(-0.006902314856 -0.001232902262 -7.792948117e-23)
(-0.004910577826 -0.001192544463 4.57919761e-24)
(-0.002927374671 -0.0009618993171 -4.143983221e-24)
(-0.001205629566 -0.0005912686837 -2.002953539e-22)
(-1.942759305e-05 -0.0001699969118 0)
(0.000517896548 0.0001719470446 1.528623945e-25)
(0.0002226853326 0.0003058877239 -2.801349276e-24)
(-0.0002633980265 0.0008287126362 1.391433146e-25)
(-0.002702869871 0.003383149566 1.549428952e-23)
(-0.006905914348 0.005603334403 1.537491898e-25)
(-0.01194986012 0.007006745868 -8.456524803e-25)
(-0.01713148307 0.007552224289 1.156302331e-24)
(-0.02197081781 0.007292751378 1.300165716e-23)
(-0.02610546907 0.006320714084 1.455385094e-24)
(-0.02925988466 0.004753406056 -7.349003355e-24)
(-0.03122082021 0.002736832101 1.01871649e-23)
(-0.03183628339 0.0004525658475 4.519628647e-24)
(-0.03102238701 -0.001883530913 -6.328877157e-24)
(-0.02878870926 -0.004022072431 2.959714023e-24)
(-0.02526788613 -0.005707208598 3.899632908e-23)
(-0.02072949882 -0.006706256807 -1.957648054e-24)
(-0.01558819256 -0.006853163122 3.760482889e-24)
(-0.01038456279 -0.006096812529 -9.762649942e-23)
(-0.005730306375 -0.004545941337 9.65985726e-23)
(-0.002233678571 -0.002507555151 -3.999140798e-25)
(-0.0001820625326 -0.0005027488534 4.099999658e-25)
(8.339275834e-05 0.0006096264526 0)
(-0.00041874061 0.002934465829 -2.918196983e-25)
(-0.004646864033 0.008802102883 1.712626308e-23)
(-0.01136940598 0.01323750376 -8.174706766e-24)
(-0.01932294169 0.01578858417 -2.056702901e-25)
(-0.02746799173 0.01652647427 2.020495691e-25)
(-0.03511009608 0.01564123448 8.848670971e-27)
(-0.04170453742 0.01335747254 -1.285752044e-24)
(-0.04682603037 0.00991818921 -4.593836303e-25)
(-0.05013992485 0.005601912793 -1.066707266e-23)
(-0.05140255853 0.0007449910483 0)
(-0.050468853 -0.004240233962 0)
(-0.04732909709 -0.008884867649 2.675202555e-23)
(-0.04215272331 -0.01267898058 2.817176411e-23)
(-0.03530939187 -0.01513316067 -1.64915658e-24)
(-0.02738655807 -0.01585928472 4.856371746e-23)
(-0.01916806991 -0.01467134713 9.44031009e-23)
(-0.01156002215 -0.01169244485 3.998817304e-23)
(-0.005465211192 -0.007450448056 4.218570638e-25)
(-0.001451182537 -0.002936387466 1.033703112e-25)
(-9.07279221e-05 0.0002254398527 0)
(-0.0005023354592 0.006044013904 -4.257919645e-23)
(-0.00640121854 0.01636704615 -1.702825696e-23)
(-0.01553136375 0.02355399855 8.101575998e-24)
(-0.02627301804 0.02743551846 0)
(-0.03727897461 0.02831493407 0)
(-0.04767977367 0.02658232774 0)
(-0.05678437126 0.02262702334 -4.686143459e-26)
(-0.06404048263 0.01683350263 -2.096894482e-24)
(-0.06899697451 0.00962138966 0)
(-0.07129460929 0.001492086868 1.645955697e-24)
(-0.07069563985 -0.006933813309 2.809481851e-25)
(-0.06711878675 -0.01492615827 -2.81734834e-25)
(-0.06068916158 -0.02166237986 0)
(-0.05179959652 -0.02631085894 4.143471861e-23)
(-0.04114408697 -0.02815582978 -4.69178658e-23)
(-0.02971584828 -0.02676973393 -2.773805861e-23)
(-0.01873499325 -0.02221262371 -3.984343429e-23)
(-0.009487082064 -0.01521798825 7.794164629e-25)
(-0.002976670361 -0.00729816286 9.762630328e-23)
(-0.0002318535048 -0.000866591054 0)
(-0.0005314713186 0.01009270262 4.278638335e-23)
(-0.00798168978 0.02594621316 4.768359716e-25)
(-0.01939234787 0.03642053337 -4.65945144e-25)
(-0.03281633011 0.04184592621 0)
(-0.04663650203 0.04288574037 7.762088265e-25)
(-0.05983934725 0.0401927421 -7.654464334e-25)
(-0.07161791922 0.03434125677 3.664609974e-23)
(-0.08131110675 0.02585281954 1.840052957e-23)
(-0.08834889037 0.01527176993 6.214776144e-24)
(-0.09223758263 0.003247572946 -1.647873258e-24)
(-0.09258738606 -0.009403951441 0)
(-0.08916047253 -0.02166887144 4.386053163e-25)
(-0.08194657636 -0.03236013636 1.014577649e-23)
(-0.07125790533 -0.0402045595 -4.360174517e-23)
(-0.05781173215 -0.04401275724 1.939886851e-24)
(-0.04277988138 -0.04294166665 4.241095415e-23)
(-0.02775084321 -0.03682859926 -3.880303674e-25)
(-0.01454880395 -0.02652443289 0)
(-0.004858896102 -0.0140836845 5.43503942e-23)
(-0.0003640866076 -0.002847165603 -2.561946788e-22)
(-0.0005270933253 0.01499581607 9.829655421e-23)
(-0.009375819497 0.03738165457 -4.899064453e-25)
(-0.02287680205 0.05169062568 0)
(-0.03882210958 0.05892904142 0)
(-0.05537501702 0.06024331123 -8.724399401e-23)
(-0.0714143389 0.05660815166 -8.490848826e-23)
(-0.08604977388 0.04879332029 -4.059090392e-23)
(-0.0985324082 0.03743455168 -1.500222472e-23)
(-0.108175115 0.02315803564 -5.347543994e-24)
(-0.1143248383 0.006711376667 -8.160509924e-24)
(-0.1163855019 -0.01092794138 6.585173842e-24)
(-0.1138758303 -0.02848167937 8.796573074e-24)
(-0.1065326262 -0.04436063479 -1.891430036e-23)
(-0.09445433493 -0.05674239941 4.479754288e-24)
(-0.07825761136 -0.06377203349 0)
(-0.05922092323 -0.0639251224 -1.585589107e-23)
(-0.03933462986 -0.05653045734 -2.015738695e-26)
(-0.02113915286 -0.04235315118 0)
(-0.007317763004 -0.02398014126 -1.517691019e-22)
(-0.0005215204332 -0.005925371796 6.049771286e-22)
(-0.0004989906233 0.02064107619 -9.762716015e-23)
(-0.0105274166 0.05044313148 2.830423273e-22)
(-0.02582451801 0.0691101035 1.526049047e-22)
(-0.04401295136 0.07847619106 3.616751373e-24)
(-0.06309563715 0.08027892484 -7.317502851e-23)
(-0.08188930168 0.07586662343 9.034740194e-23)
(-0.09946040802 0.06620622375 -3.587191358e-24)
(-0.115003657 0.05201011893 -1.727351726e-24)
(-0.1277316727 0.03392099844 2.521381539e-24)
(-0.1368265621 0.01270406708 7.369095816e-24)
(-0.1414506145 -0.01058198986 -6.485765138e-24)
(-0.1408053345 -0.03445083519 -9.754970941e-24)
(-0.1342567278 -0.05691552676 -3.261043401e-23)
(-0.121529381 -0.07551924446 -3.640257363e-23)
(-0.1029543679 -0.08752823689 5.602623987e-25)
(-0.07975390752 -0.09037868869 0)
(-0.05426024705 -0.08243406549 0)
(-0.02986799475 -0.06396968783 -2.90116377e-24)
(-0.01066153831 -0.03798403579 2.965504325e-24)
(-0.0007349680061 -0.01050013507 1.027640413e-22)
(-0.0004478788211 0.02686670447 0)
(-0.01134738884 0.06479380169 2.001580489e-22)
(-0.02801143827 0.08827794497 8.960473617e-23)
(-0.04799086782 0.1001037098 0)
(-0.0691951791 0.102688596 1.568952682e-22)
(-0.09043003657 0.09779917775 0)
(-0.1107670774 0.08659811075 -1.42763502e-22)
(-0.1293914513 0.0698310849 6.511409704e-24)
(-0.1454580124 0.0480788374 0)
(-0.1580154245 0.02201909544 0)
(-0.1659936062 -0.007328100483 -1.373103853e-24)
(-0.1682480383 -0.0383777654 -9.303584285e-25)
(-0.1636885637 -0.06882563855 1.490248141e-22)
(-0.1515047779 -0.0955662327 -4.703536335e-23)
(-0.1314997452 -0.1148122992 -2.55583607e-24)
(-0.1045487994 -0.1225533413 1.529796265e-24)
(-0.0730859289 -0.1155370926 -1.553927731e-24)
(-0.04134587009 -0.09282030528 0)
(-0.01525064149 -0.05740159335 3.200996827e-24)
(-0.001044154549 -0.01714560159 -1.012171189e-21)
(-0.0003744955389 0.0334563099 0)
(-0.01174870208 0.07997331808 -1.127554128e-22)
(-0.02920355445 0.1086181618 -6.188942533e-22)
(-0.05031132833 0.1232007335 -3.754023093e-22)
(-0.07295441804 0.1268879059 0)
(-0.09597842734 0.1219065713 4.117847133e-22)
(-0.1185141399 0.1096200363 1.260259433e-22)
(-0.1397998721 0.09077266063 -5.578981401e-24)
(-0.1590063237 0.06580960438 5.551368446e-24)
(-0.1751296951 0.03521003034 0)
(-0.1869394609 -0.0001902207015 2.910684967e-23)
(-0.1930010145 -0.03888621531 4.692573275e-24)
(-0.1917654435 -0.07842352822 -1.075833745e-22)
(-0.1817730312 -0.1151681765 7.995029932e-23)
(-0.1620442693 -0.144239898 -2.417645609e-22)
(-0.1326956316 -0.1598347787 0)
(-0.09577106445 -0.1562931355 0)
(-0.05601157776 -0.1302839528 0)
(-0.02147665446 -0.08380281118 0)
(-0.001500202147 -0.0266526586 5.568314386e-22)
(-0.000287491789 0.04015345115 0)
(-0.01169292467 0.09541883147 -3.491870749e-22)
(-0.02924236768 0.1293845327 8.930137614e-22)
(-0.05060571269 0.1469051912 3.615938161e-22)
(-0.07369523395 0.1519511097 0)
(-0.09744422914 0.1472551233 -3.861048179e-22)
(-0.1210983113 0.1344030614 -3.173231852e-23)
(-0.1440227888 0.1141286233 3.331928383e-22)
(-0.1655039905 0.0866951871 1.768834548e-22)
(-0.1846141971 0.05229219534 -4.058680362e-23)
(-0.2001218392 0.01142365849 1.656553345e-23)
(-0.2104515712 -0.03470275921 -8.261285394e-24)
(-0.213710356 -0.08374990265 3.370461946e-22)
(-0.2078113613 -0.131856552 0)
(-0.1908142325 -0.1732543118 2.418813617e-22)
(-0.1616249773 -0.2002373011 5.768409307e-24)
(-0.1211593438 -0.2039913685 -5.854433368e-24)
(-0.07384529587 -0.1771948676 1.546406024e-22)
(-0.0297158077 -0.1188531889 -5.429361418e-24)
(-0.002179338686 -0.04005039428 0)
(-0.0002118920562 0.04670891833 0)
(-0.0112501639 0.1105319976 0)
(-0.02815608548 0.1497118255 -5.021361561e-22)
(-0.04874398112 0.1701260494 -1.880500336e-23)
(-0.07099926629 0.1766010231 2.037780365e-23)
(-0.09399218499 0.1724312415 -2.013719926e-23)
(-0.1171405699 0.1594704955 -2.316145196e-23)
(-0.1400148215 0.138469587 -3.028747305e-22)
(-0.162129731 0.1095111549 6.697828319e-23)
(-0.1827928637 0.07245283983 4.511518208e-23)
(-0.2009806426 0.0273557046 -4.576003134e-23)
(-0.2152241149 -0.02507575468 0)
(-0.223553073 -0.08296825188 -7.833634295e-23)
(-0.223459577 -0.1427071916 0)
(-0.2120636861 -0.1981611092 -3.738142137e-22)
(-0.1867387452 -0.2400550566 5.24241009e-22)
(-0.1464392198 -0.2560553597 0)
(-0.09394203205 -0.2331017981 -1.492013456e-22)
(-0.04021808828 -0.1639481433 1.935504826e-22)
(-0.003200880903 -0.05860592138 -3.40949325e-22)
(-0.0002017727846 0.05296870206 0)
(-0.0106736476 0.1247998965 9.180947991e-22)
(-0.02628632593 0.1687191463 -2.440136298e-23)
(-0.04501351478 0.1916200521 9.191366901e-22)
(-0.06494880406 0.1992676523 -2.511488469e-23)
(-0.08536945758 0.1955893542 2.838105168e-23)
(-0.1059341457 0.1827725536 -2.812197973e-23)
(-0.1264965255 0.1616480123 -1.660473684e-23)
(-0.146904402 0.1321718924 -5.258844484e-22)
(-0.1668511152 0.09389784035 -8.904267202e-24)
(-0.18573599 0.04641220359 9.65770697e-24)
(-0.2024839198 -0.01022717029 3.312355081e-22)
(-0.2154207435 -0.07498406759 -5.819262854e-22)
(-0.2220251477 -0.1450142946 0)
(-0.2188057655 -0.2146569729 8.884612438e-22)
(-0.2016264363 -0.2739809583 -4.938496038e-22)
(-0.1668629723 -0.3075599865 -1.571459457e-23)
(-0.11402025 -0.2953615825 0)
(-0.05288341363 -0.219565663 -1.888172946e-22)
(-0.004748979407 -0.0837670859 3.358586346e-22)
(-0.0003644741368 0.05901684875 1.55070118e-23)
(-0.01049760179 0.1379723047 -8.762364151e-22)
(-0.02441772401 0.1856587087 -1.156851629e-21)
(-0.04027289399 0.2101145342 -8.627137389e-22)
(-0.05631452423 0.2182118592 0)
(-0.07215717881 0.2145993164 3.513031912e-23)
(-0.08780208775 0.2018643995 -7.293248551e-23)
(-0.1034673265 0.1809914947 5.86657805e-23)
(-0.1194105026 0.1518964798 3.020639253e-22)
(-0.1358061376 0.1139171821 -1.127953031e-23)
(-0.1526217586 0.06622090025 0)
(-0.1694656768 0.008187354447 -3.603132173e-22)
(-0.1852889545 -0.06014713835 7.514259024e-22)
(-0.1980563599 -0.1372601048 8.83024805e-22)
(-0.2043639361 -0.2189100932 -5.295258743e-22)
(-0.1991042336 -0.295953836 5.161531983e-22)
(-0.1760639728 -0.3513887807 1.077562737e-23)
(-0.130089938 -0.3583969429 -1.094867019e-23)
(-0.06688756684 -0.2843129672 -8.233372699e-23)
(-0.007083163432 -0.1169901125 0)
(-0.0009098781559 0.065395339 -1.911161468e-23)
(-0.01167847952 0.1502682317 -1.326764036e-21)
(-0.02389435643 0.2000470296 1.094042296e-21)
(-0.03602188907 0.2244004611 6.733880795e-22)
(-0.04658421569 0.2316382761 6.01366369e-22)
(-0.05578378142 0.2272218799 6.642835582e-22)
(-0.0641277316 0.2141646303 -4.457841334e-23)
(-0.07229242292 0.1936420236 -3.460748784e-22)
(-0.08098771679 0.1656008605 2.151805281e-22)
(-0.09089068349 0.1292736672 0)
(-0.1025738433 0.0835376983 0)
(-0.1163811251 0.02720977436 2.655052349e-22)
(-0.1321770723 -0.04060871673 8.195266076e-23)
(-0.1489418423 -0.1200006251 -2.820910695e-22)
(-0.1641427148 -0.20891732 -5.410503886e-23)
(-0.1727989056 -0.30068583 1.302105939e-22)
(-0.167038577 -0.3793185207 -3.399574317e-22)
(-0.1365329271 -0.4136303074 -1.601917343e-23)
(-0.08018328998 -0.3538193918 8.222120703e-23)
(-0.01050757727 -0.1594066544 -6.033508535e-22)
(-0.002260798713 0.07348533753 0)
(-0.0158065826 0.1626419482 2.145569824e-21)
(-0.02665717715 0.2117752749 0)
(-0.03423398185 0.2333771678 -1.351618195e-21)
(-0.03760805281 0.2377594467 6.184965524e-23)
(-0.03801384178 0.2312406489 -6.192044251e-22)
(-0.03670186127 0.2171792125 -4.755566006e-22)
(-0.03491114379 0.1968876993 8.299935046e-22)
(-0.03381012934 0.1703332892 -1.885382152e-22)
(-0.03452083588 0.1367254646 0)
(-0.0381375977 0.09480345501 0)
(-0.04567110584 0.04305178543 2.411088008e-23)
(-0.05792811928 -0.02012782701 -6.006494287e-22)
(-0.07516447788 -0.09619643619 -4.309060137e-22)
(-0.09646807502 -0.1855458775 4.637484717e-22)
(-0.1183597024 -0.2853472318 -6.487746881e-22)
(-0.1332814732 -0.3838286725 9.116704591e-23)
(-0.1265409576 -0.4504253205 2.945816646e-23)
(-0.08899356525 -0.4198432447 5.660941208e-22)
(-0.01526929377 -0.2111662089 6.022138735e-22)
(-0.00518115733 0.08597869928 0)
(-0.02525860614 0.1766224967 1.465652189e-22)
(-0.03484123941 0.2205852957 -4.916587951e-23)
(-0.03641162004 0.2354727058 7.641962283e-22)
(-0.03020030263 0.2343272969 -7.004435909e-22)
(-0.01918459591 0.2241487918 4.745840623e-23)
(-0.005636170762 0.2083441475 -1.018548515e-22)
(0.008547140569 0.1881195791 -3.389383112e-22)
(0.02177567273 0.1633905976 2.062566166e-22)
(0.03260490455 0.1333273427 0)
(0.03956254359 0.09664672489 0)
(0.04114943579 0.05174817567 -2.902369465e-22)
(0.03576564604 -0.00324715992 0)
(0.02196439458 -0.07057552894 -5.511849733e-22)
(-0.001280261269 -0.1525662455 -1.491122624e-23)
(-0.03311767346 -0.2505885024 2.559445636e-23)
(-0.06910272232 -0.3599279021 2.202554874e-22)
(-0.09228505556 -0.4575363592 4.790833557e-24)
(-0.08718365993 -0.4698061159 -5.78995176e-22)
(-0.02103155978 -0.2698927747 0)
(-0.01111645195 0.1085973377 0)
(-0.04249155272 0.1947120412 -8.847603821e-22)
(-0.0479615612 0.225813073 -5.410638664e-22)
(-0.03920581685 0.2282047948 4.543456902e-22)
(-0.01879276957 0.2182234358 -1.71026261e-24)
(0.007646460849 0.2028135683 -4.560581619e-23)
(0.03665971181 0.1847556496 5.695975688e-22)
(0.06580838472 0.1647081526 -2.76655597e-23)
(0.09324929362 0.142312183 -2.069520688e-22)
(0.1173676945 0.1166296492 3.141877862e-23)
(0.1365259281 0.08641581873 -3.425597584e-23)
(0.1489483558 0.05018251064 -3.690320937e-23)
(0.1525110342 0.006165573821 3.205425509e-22)
(0.1449222968 -0.04795512931 6.119238156e-22)
(0.1235035543 -0.1153000412 -5.10088798e-22)
(0.08632509389 -0.2004154462 -1.615961462e-22)
(0.03198194155 -0.3067774767 1.531341894e-22)
(-0.02362762983 -0.4239805146 7.293807243e-23)
(-0.06492673363 -0.48715764 1.913302259e-21)
(-0.02510007521 -0.3291516277 2.955003548e-21)
(-0.0200467109 0.1460735889 -4.389970236e-23)
(-0.06416522825 0.2112950517 4.417141568e-23)
(-0.05070604824 0.2177272131 1.000126631e-21)
(-0.0193479812 0.2014632353 -8.262462869e-24)
(0.02413416223 0.1809019513 0)
(0.07152753089 0.1606878558 4.363287949e-23)
(0.1190542208 0.1416451765 -2.273600427e-22)
(0.1644590869 0.1233154476 -9.026908233e-23)
(0.2062069047 0.104810937 3.680302834e-23)
(0.2429464813 0.08507248144 -1.701475874e-23)
(0.2732041084 0.06296410405 3.429650514e-23)
(0.29523877 0.03726659789 -6.592163469e-23)
(0.3066841911 0.006539165818 -9.30326381e-23)
(0.3049629442 -0.03087375534 1.516964721e-22)
(0.2863847702 -0.07785963776 0)
(0.2470497557 -0.1399277777 1.505509352e-22)
(0.1810865148 -0.2266289488 2.559995383e-22)
(0.09604023805 -0.344388235 0)
(-0.006699796798 -0.4552196786 -3.675648155e-21)
(-0.01922443904 -0.3777525149 -2.892632375e-21)
(-0.02591924942 0.227683771 -9.514057408e-22)
(-0.03998282741 0.2238222662 -1.388922995e-22)
(0.03656090446 0.1810579921 -2.335430591e-22)
(0.1090479586 0.1451042103 -1.193651738e-22)
(0.181714299 0.1172421021 -4.295578848e-23)
(0.2490016262 0.09627648496 9.782238168e-23)
(0.310023936 0.08002289198 -1.408435727e-22)
(0.3646095484 0.06656667386 1.29702583e-22)
(0.4126130108 0.0544912453 -8.619117436e-23)
(0.4536127917 0.04270934996 1.132160495e-25)
(0.486776394 0.03032417844 1.527607526e-23)
(0.510735004 0.0165307472 7.996571545e-23)
(0.5236513898 0.0005383515795 -1.811007588e-22)
(0.5231734359 -0.01863194653 -1.617066472e-22)
(0.5052276672 -0.04286334903 -4.262608195e-23)
(0.4658682205 -0.07633140844 0)
(0.3952672695 -0.1286086561 -1.8464806e-22)
(0.2916053122 -0.2208467295 8.148760764e-22)
(0.1197444241 -0.3525016162 1.631602047e-21)
(0.02670519768 -0.3775496359 2.172655826e-21)
(0.2142897207 0.1347449882 9.864826752e-22)
(0.2776319713 0.09870537833 0)
(0.4316601794 0.05810430874 -2.594210995e-22)
(0.5304753288 0.03846259456 -1.741577096e-22)
(0.6016958554 0.02623397418 0)
(0.6571178014 0.01831895987 -6.008519184e-23)
(0.7015179688 0.01313577295 6.377255444e-23)
(0.7375998869 0.009541997746 -1.799917778e-23)
(0.7669319737 0.006804480937 2.88560332e-23)
(0.7902058138 0.004464906813 2.314760747e-23)
(0.8074511298 0.002221598056 0)
(0.81825859 -0.0001497258521 -2.872787755e-23)
(0.8216474498 -0.002723481997 0)
(0.8162379589 -0.005712392738 2.737916963e-23)
(0.7991326956 -0.00961122066 1.421588294e-23)
(0.7679985752 -0.01500250784 -5.79946323e-23)
(0.7106557308 -0.02502527188 -2.535661524e-22)
(0.6235184975 -0.04204293901 -6.918099604e-22)
(0.4230090918 -0.09182976871 0)
(0.2705674426 -0.152402224 -2.119483692e-21)
)


// ************************************************************************* //
