/*--------------------------------*- C++ -*----------------------------------*\
  =========                 |
  \\      /  F ield         | OpenFOAM: The Open Source CFD Toolbox
   \\    /   O peration     | Website:  https://openfoam.org
    \\  /    A nd           | Version:  13
     \\/     M anipulation  |
\*---------------------------------------------------------------------------*/
FoamFile
{
    format      ascii;
    class       scalarField;
    location    "14.2";
    object      p_all;
}
// * * * * * * * * * * * * * * * * * * * * * * * * * * * * * * * * * * * * * //


400
(
-5.059201477e-07
-0.000544610123
-0.0008834004479
-0.001007918792
-0.0009266605087
-0.0006718782421
-0.0002810305615
0.0002100112506
0.0007648542738
0.001343219963
0.001899656878
0.002381583897
0.002733812869
0.002903394569
0.002848809353
0.002551879603
0.002032583282
0.001347759809
0.0006925336624
9.915170115e-05
0.0005829089531
5.625971034e-06
-0.0003547293892
-0.0004940361623
-0.0004605677
-0.000280864252
1.569697248e-05
0.0003998539809
0.0008402381272
0.00129973913
0.001738706921
0.002106152202
0.002351863962
0.002428614651
0.002302522087
0.00196460828
0.001441188037
0.0007968156017
0.0002027256965
-0.0004577793631
0.0009433645487
0.000303539042
-9.404142582e-05
-0.0002372176056
-0.0002278853002
-9.607802492e-05
0.0001340942585
0.000441262406
0.0008016787713
0.001183781901
0.001554473735
0.001861191682
0.002053811805
0.002083732897
0.001915830218
0.001540099818
0.0009801360459
0.0002920380874
-0.0004029117462
-0.00123661776
0.0009647559085
0.0002516401774
-0.0001945096209
-0.0003433556111
-0.0003488587132
-0.0002477532683
-6.083491697e-05
0.0001990832452
0.000518233588
0.0008759720656
0.001232306222
0.001543389197
0.001748972183
0.001788791796
0.001614092134
0.001201398375
0.0005622416629
-0.0002570073382
-0.001167965426
-0.002313527486
0.0004699582821
-0.0002903865184
-0.0007649477037
-0.0009128165646
-0.000929312624
-0.0008556526966
-0.0007071010689
-0.000484524454
-0.0001880220675
0.0001728415096
0.0005677609772
0.0009485162899
0.001244264659
0.001374486394
0.001263063223
0.0008569192887
0.0001418997107
-0.0008501725524
-0.002054823879
-0.0035768863
-0.0006916750667
-0.001467651054
-0.00195231711
-0.002099016304
-0.002136174251
-0.002106051789
-0.002014249328
-0.001844236354
-0.001575408548
-0.001197816783
-0.0007271239265
-0.0002077846579
0.0002779676952
0.00062086218
0.0006995787832
0.0004064786004
-0.000323779899
-0.001489428657
-0.003054036276
-0.005053431479
-0.002656849009
-0.003414574432
-0.003902116753
-0.004062390886
-0.00415261478
-0.00421278788
-0.004233969815
-0.004175126721
-0.003984761383
-0.003619840534
-0.00306626043
-0.002349750455
-0.001555884827
-0.000826308781
-0.0003483217377
-0.0003218845864
-0.000909340781
-0.002177367613
-0.004143039904
-0.00672968808
-0.005534658542
-0.006246816501
-0.006740855979
-0.006948659395
-0.007152903974
-0.007389198543
-0.007629946789
-0.007802083291
-0.007810525414
-0.007560031516
-0.006981360131
-0.006051372054
-0.004837018386
-0.003502045075
-0.002316102974
-0.001621000767
-0.001751582644
-0.002921659926
-0.005269313148
-0.008553721707
-0.009395156963
-0.01004024138
-0.01055293836
-0.01085775452
-0.0112616322
-0.01179670047
-0.01241542447
-0.01300710266
-0.0134203462
-0.01348438423
-0.013036353
-0.01197352925
-0.01028393707
-0.008120237504
-0.005830322799
-0.003946334021
-0.003082383648
-0.003738061324
-0.006317945024
-0.01037435504
-0.0142543991
-0.01481386692
-0.01535685203
-0.0158073878
-0.0165012763
-0.01747329447
-0.01865970122
-0.01991126879
-0.02101135068
-0.02169323639
-0.02166861288
-0.0206818376
-0.01858666181
-0.01544608598
-0.01163656903
-0.007895806705
-0.005233215474
-0.004642537888
-0.007064231319
-0.01185569464
-0.02006875381
-0.02052134318
-0.02108798942
-0.02170041432
-0.02273990852
-0.02425732101
-0.02618256477
-0.02833325193
-0.03042610376
-0.03208600739
-0.03286855288
-0.03231274347
-0.03006118339
-0.02597117358
-0.02033661636
-0.01403773171
-0.00854658307
-0.00559750419
-0.007096595651
-0.0123411642
-0.02674949399
-0.02705960979
-0.02759753195
-0.02830843054
-0.02965802406
-0.03173568432
-0.03448009265
-0.0376856587
-0.0410079799
-0.04396317642
-0.04593821848
-0.04623030706
-0.04422237085
-0.03943469496
-0.03191642986
-0.02251813111
-0.01311039195
-0.006350441597
-0.005685466128
-0.01064519408
-0.03421087442
-0.03430066261
-0.03467135026
-0.03527837656
-0.03674999854
-0.03924617906
-0.0427308505
-0.04698376525
-0.05160538904
-0.05601021275
-0.05942690394
-0.06094165965
-0.05954322038
-0.05443718117
-0.04524347847
-0.03252468014
-0.01830106521
-0.006114814001
-0.001558781719
-0.004767663162
-0.04247540399
-0.0421532554
-0.04207165255
-0.04216699924
-0.04337172433
-0.045954366
-0.04991354274
-0.05501167115
-0.06078810503
-0.0665597376
-0.07140437689
-0.0741874774
-0.07362474087
-0.06848841996
-0.05790732932
-0.04191702929
-0.02231333661
-0.003146593428
0.007442563978
0.008423714522
-0.05187324767
-0.05063386413
-0.04955658389
-0.04845725972
-0.04879610199
-0.05097227252
-0.05500197633
-0.06060544454
-0.06722824436
-0.07407697131
-0.0800756882
-0.08388551921
-0.0839644301
-0.07869807938
-0.06672836765
-0.04742762828
-0.0220452506
0.005574292734
0.02477845022
0.03357757733
-0.06352535377
-0.06007002739
-0.05698834303
-0.05366023384
-0.05235654228
-0.05355596006
-0.05721385116
-0.062977371
-0.07008121124
-0.07761585603
-0.08431689961
-0.08863158802
-0.08877735563
-0.08274818805
-0.06878876021
-0.0455788033
-0.01372387411
0.02444224073
0.05556139575
0.07737030936
-0.08007250894
-0.07097358757
-0.06403448789
-0.05708843523
-0.05335267168
-0.05312217324
-0.05614272206
-0.06177536984
-0.06910323999
-0.07695729212
-0.08386249029
-0.08802463037
-0.08738226743
-0.07959982016
-0.06245757322
-0.03405480052
0.005531370686
0.05859462965
0.1058079904
0.1480499093
-0.1104187698
-0.08577931485
-0.07154988714
-0.0589267885
-0.05186857221
-0.04982089913
-0.05201522792
-0.05739568715
-0.06472749227
-0.07257031483
-0.07921067214
-0.08260739386
-0.08045102571
-0.06985165705
-0.04823216612
-0.01275011213
0.03819100711
0.1070894706
0.1779355078
0.2564315365
-0.1683724612
-0.09985472285
-0.07497706832
-0.05477972873
-0.04459830225
-0.04154650328
-0.04365205165
-0.04928851408
-0.05690313857
-0.0648479152
-0.07124434976
-0.07388142388
-0.07005841546
-0.05698240292
-0.03103235569
0.01189744365
0.07554937761
0.1663490027
0.2761055534
0.4376509498
-0.3983653503
-0.1380513029
-0.07494604257
-0.04707954203
-0.03353944464
-0.03000309911
-0.03274885839
-0.03918409791
-0.04745594376
-0.05582567548
-0.06238950872
-0.06493472152
-0.06092636958
-0.04693412619
-0.0187536873
0.02991136124
0.1069128647
0.2333766533
0.4198276294
0.7799726443
)


// ************************************************************************* //
