/*--------------------------------*- C++ -*----------------------------------*\
  =========                 |
  \\      /  F ield         | OpenFOAM: The Open Source CFD Toolbox
   \\    /   O peration     | Website:  https://openfoam.org
    \\  /    A nd           | Version:  13
     \\/     M anipulation  |
\*---------------------------------------------------------------------------*/
FoamFile
{
    format      ascii;
    class       scalarField;
    location    "43.4";
    object      p_all;
}
// * * * * * * * * * * * * * * * * * * * * * * * * * * * * * * * * * * * * * //


400
(
2.83201848e-08
-0.000547474714
-0.0008895216911
-0.001017018352
-0.0009381761198
-0.0006853271107
-0.000296026096
0.0001937255509
0.000747375381
0.001324421464
0.001879233303
0.002358975398
0.002708269032
0.002874018391
0.002814678226
0.002512243919
0.001987184877
0.001296646024
0.0006377149308
4.181357899e-05
0.0005881830454
6.878975661e-06
-0.0003568551629
-0.0004991747495
-0.0004685277651
-0.0002914871627
2.585352629e-06
0.0003844236359
0.0008226200736
0.001279886225
0.00171635508
0.002080867599
0.002323065707
0.002395600928
0.002264609945
0.001921314048
0.001392451534
0.0007430746654
0.0001454233315
-0.0005172575635
0.0009524439542
0.0003080247914
-9.324217351e-05
-0.000239567305
-0.0002334313633
-0.0001049291495
0.0001218903315
0.0004257496322
0.0007829371233
0.001161455214
0.001529491974
0.001832903006
0.002021750398
0.002047314947
0.001874471228
0.001493409811
0.0009281106368
0.0002351295654
-0.0004633395538
-0.001300306966
0.0009761546452
0.0002579885376
-0.0001922815428
-0.000344593646
-0.00035385435
-0.000256860264
-7.426419985e-05
0.0001813294968
0.0004963826063
0.0008506740029
0.001203019598
0.001510499175
0.001712304306
0.001747895732
0.001568404592
0.001150450044
0.0005058596248
-0.0003186268777
-0.001233957017
-0.002384751539
0.000480479549
-0.0002849903272
-0.0007638971316
-0.0009156160294
-0.000936658085
-0.0008682376481
-0.0007253253082
-0.0005083841486
-0.000217140252
0.0001391596258
0.0005300911217
0.0009073880515
0.001199826939
0.001326517004
0.001211038482
0.0008001937329
7.993714877e-05
-0.0009176651891
-0.002127649103
-0.003656146268
-0.0006863747018
-0.001467152865
-0.001956188944
-0.002107242037
-0.002150032083
-0.002126696449
-0.002042322772
-0.001879698906
-0.001617579218
-0.001245543687
-0.0007791310628
-0.0002628765286
0.0002206021024
0.0005614745605
0.0006378254739
0.000341518297
-0.0003930446051
-0.001564085952
-0.003134872073
-0.005142109838
-0.002661829804
-0.003423553222
-0.003915414634
-0.004080784683
-0.004178149829
-0.004247208912
-0.004278237611
-0.004229190113
-0.004047588113
-0.003689632938
-0.003140777387
-0.002426778754
-0.001633535476
-0.0009034666156
-0.0004248565855
-0.000398721062
-0.000988268932
-0.002260611377
-0.004232773102
-0.006828354149
-0.005555017831
-0.006269954183
-0.006768249506
-0.006982195789
-0.007195579914
-0.007443474785
-0.007697184174
-0.007882257795
-0.007902231524
-0.007660676908
-0.007087409857
-0.006159552226
-0.004943803198
-0.003604924418
-0.002413993186
-0.001714574638
-0.001843260529
-0.003015074636
-0.005368510762
-0.008662307823
-0.009435248354
-0.01008158193
-0.01059845872
-0.01091070575
-0.01132610975
-0.0118759914
-0.01251136708
-0.01311974551
-0.01354791224
-0.01362348927
-0.01318261501
-0.01212125945
-0.01042816366
-0.00825669512
-0.00595646714
-0.004062043269
-0.003190307144
-0.003843207499
-0.006426604035
-0.01049179373
-0.01431703034
-0.01487601378
-0.01542300298
-0.01588225199
-0.01659009471
-0.01758022859
-0.0187870897
-0.02005922334
-0.02117771579
-0.02187377629
-0.02185755998
-0.02087244531
-0.01877210396
-0.01562027624
-0.01179524786
-0.0080375087
-0.005360065828
-0.004760323901
-0.007181345016
-0.01197942678
-0.02015454164
-0.0206047679
-0.02117495497
-0.02179695906
-0.022852317
-0.0243905777
-0.02633945021
-0.02851383962
-0.03062778509
-0.03230372438
-0.03309548567
-0.03254093759
-0.03028271666
-0.02617891559
-0.02052510959
-0.01420413719
-0.008691744726
-0.005726813872
-0.007219460007
-0.01246660725
-0.02685656433
-0.02716232808
-0.02770276571
-0.0284231801
-0.02978937923
-0.03188931938
-0.03465910962
-0.03788987735
-0.04123416626
-0.04420529452
-0.04618837105
-0.04647902162
-0.04446332357
-0.03966027207
-0.0321212575
-0.02269897976
-0.01326678515
-0.006486143997
-0.005808835352
-0.01076543118
-0.03433492111
-0.03441833539
-0.03478967896
-0.03540476294
-0.03689207273
-0.03941022474
-0.04292027143
-0.04719791133
-0.05184030923
-0.05625862618
-0.05967998398
-0.06119114818
-0.0597797728
-0.05465601927
-0.04544129578
-0.03269993613
-0.01845331479
-0.006246121191
-0.001674164391
-0.004873798834
-0.04261006414
-0.04227963701
-0.04219586082
-0.04229618419
-0.04351393163
-0.04611662731
-0.05009984494
-0.05522061941
-0.06101530582
-0.06679642015
-0.07164036637
-0.07441326665
-0.07383282637
-0.06867514518
-0.05807220714
-0.04206207907
-0.02244028776
-0.003257454875
0.007346839466
0.008341235683
-0.05201057304
-0.05076122634
-0.04967804925
-0.04857914917
-0.04892701764
-0.05112044938
-0.05517314863
-0.06079650002
-0.06743581061
-0.07429018032
-0.08028305999
-0.08407651405
-0.08413094634
-0.07883783177
-0.06684309339
-0.04752370101
-0.02212772882
0.0055015348
0.02471513734
0.03352717781
-0.06365617343
-0.06018947138
-0.0570976138
-0.05376466076
-0.05246580605
-0.0536804815
-0.05736533475
-0.06313853845
-0.07026301353
-0.07780147751
-0.08449316721
-0.08878638001
-0.0888986983
-0.08283997184
-0.06885105469
-0.04562107573
-0.01375175277
0.02441668007
0.05553943354
0.07735567419
-0.08018672784
-0.07107528586
-0.06412154212
-0.05716584412
-0.05343200498
-0.05321609641
-0.05625986383
-0.06191489826
-0.0692600499
-0.07711804073
-0.08401330392
-0.08815275934
-0.08748118893
-0.07965690592
-0.06247975057
-0.03405066182
0.005564729692
0.05859390848
0.1058229486
0.1480676565
-0.1105081136
-0.08585541748
-0.07160738683
-0.05897242539
-0.05191483453
-0.04988459097
-0.05210441258
-0.05751057914
-0.06486141276
-0.07271029876
-0.07934171744
-0.08271501186
-0.08052073375
-0.0698876327
-0.04823269506
-0.01272272739
0.03823605196
0.1071320208
0.1779785838
0.2564764226
-0.1684382948
-0.09990957982
-0.07500967069
-0.05479930068
-0.04462045404
-0.04158699973
-0.04371964506
-0.04938358836
-0.05701925518
-0.06497282999
-0.07136369822
-0.07398196816
-0.07013076093
-0.05701423441
-0.03102883205
0.01192921172
0.07559940319
0.1664041716
0.2761619504
0.4377042135
-0.3984295818
-0.1381007383
-0.074971841
-0.04708985447
-0.03355093204
-0.03003174919
-0.03280396905
-0.0392667956
-0.04756059628
-0.05594115459
-0.06250217005
-0.06503123498
-0.0609964673
-0.04697025708
-0.01875704488
0.02993533894
0.1069555958
0.2334271852
0.4198801404
0.7800233221
)


// ************************************************************************* //
