/*--------------------------------*- C++ -*----------------------------------*\
  =========                 |
  \\      /  F ield         | OpenFOAM: The Open Source CFD Toolbox
   \\    /   O peration     | Website:  https://openfoam.org
    \\  /    A nd           | Version:  13
     \\/     M anipulation  |
\*---------------------------------------------------------------------------*/
FoamFile
{
    format      ascii;
    class       scalarField;
    location    "25.61";
    object      p_all;
}
// * * * * * * * * * * * * * * * * * * * * * * * * * * * * * * * * * * * * * //


400
(
9.682007804e-07
-0.0005463635209
-0.0008883923883
-0.001015862417
-0.000936984186
-0.0006841027724
-0.0002947928697
0.0001949432809
0.0007485760035
0.001325628656
0.001880474649
0.00236026126
0.002709591551
0.002875364567
0.002816044372
0.002513639648
0.001988623782
0.001298135824
0.0006392393758
4.335853281e-05
0.000589231415
7.967640343e-06
-0.0003557434554
-0.0004980541242
-0.0004673923935
-0.0002903146449
3.807653442e-06
0.0003856823681
0.0008238864613
0.001281142768
0.001717609281
0.002082141523
0.002324379266
0.002396961644
0.002266014301
0.001922757065
0.001393932951
0.0007445958597
0.0001469748039
-0.0005156989126
0.0009534552664
0.0003090816058
-9.214120875e-05
-0.0002384429233
-0.0002323010653
-0.0001037899269
0.0001230592214
0.0004269665692
0.0007842009885
0.001162750543
0.00153079698
0.001834218715
0.002023087646
0.002048689322
0.001875893087
0.001494880336
0.0009296248614
0.0002366803823
-0.0004617644213
-0.001298716497
0.000977155832
0.0002590192567
-0.0001912061766
-0.0003434730142
-0.0003526998288
-0.0002556862308
-7.307325214e-05
0.0001825492899
0.0004976452963
0.0008519784482
0.001204361569
0.00151186581
0.00171369143
0.001749309331
0.001569856085
0.00115194811
0.0005074052498
-0.0003170396018
-0.001232339547
-0.002383100883
0.0004815055171
-0.0002839427548
-0.0007628253059
-0.0009145057639
-0.0009354966426
-0.0008670267192
-0.0007240750663
-0.0005071012792
-0.0002158224074
0.0001405167984
0.0005314865108
0.0009088153335
0.001201279156
0.001327991968
0.001212541415
0.0008017339063
8.152168933e-05
-0.0009160351281
-0.002125979003
-0.00365442935
-0.0006853043349
-0.001466045906
-0.001955063002
-0.002106091764
-0.002148835253
-0.002125436043
-0.002040995689
-0.001878313599
-0.001616146716
-0.001244072045
-0.0007776267229
-0.0002613460519
0.0002221520709
0.0005630396137
0.0006394067411
0.0003431233139
-0.0003914049087
-0.001562402053
-0.003133139549
-0.005140315995
-0.002660693568
-0.003422372454
-0.003914200329
-0.004079540008
-0.00417685801
-0.004245848756
-0.004276794606
-0.004227663549
-0.004045990017
-0.003687981466
-0.003139091871
-0.002425075768
-0.001631828206
-0.000901763172
-0.0004231584026
-0.0003970211724
-0.0009865526165
-0.002258860192
-0.004230970342
-0.006826480267
-0.005553767449
-0.006268675748
-0.006766928249
-0.006980824881
-0.007194143172
-0.00744195414
-0.007695564411
-0.007880533524
-0.00790041171
-0.007658783521
-0.007085473765
-0.006157601523
-0.004941865481
-0.003603018314
-0.002412126392
-0.00171274165
-0.001841442271
-0.003013242309
-0.005366632752
-0.008660355635
-0.009433834815
-0.01008016456
-0.01059700413
-0.01090918712
-0.01132449963
-0.01187426904
-0.01250951912
-0.01311776847
-0.01354581616
-0.01362129881
-0.01318036572
-0.01211899783
-0.01042593041
-0.008254523921
-0.005954377473
-0.004060035496
-0.003188360106
-0.003841281891
-0.006424650835
-0.01048977205
-0.01431543232
-0.01487442639
-0.01542138729
-0.01588056651
-0.01658829765
-0.01757828978
-0.0187849933
-0.0200569687
-0.02117531791
-0.02187126574
-0.02185498073
-0.02086985065
-0.01876954872
-0.01561780912
-0.01179290267
-0.008035296805
-0.005357970097
-0.004758298839
-0.00717932511
-0.01197735567
-0.02015276421
-0.02060300862
-0.02117317094
-0.02179510248
-0.02285033726
-0.0243884353
-0.02633712383
-0.02851132933
-0.03062511156
-0.03230092588
-0.03309261382
-0.03253805367
-0.03027988267
-0.02617618802
-0.02052253191
-0.01420173217
-0.008689505746
-0.005724698684
-0.007217395073
-0.01246452255
-0.02685462639
-0.02716041963
-0.02770083553
-0.02842117673
-0.02978724875
-0.03188701766
-0.03465661152
-0.03788718319
-0.04123130189
-0.04420230694
-0.0461853209
-0.04647598192
-0.04446034212
-0.03965740859
-0.03211855436
-0.0226964629
-0.01326445879
-0.006483979001
-0.005806766557
-0.01076338705
-0.03433285303
-0.0344163145
-0.03478764819
-0.03540266665
-0.03688985433
-0.03940783824
-0.04291769124
-0.04719514025
-0.05183737787
-0.05625559074
-0.05967691259
-0.0611881039
-0.05977682838
-0.05465321126
-0.04543864979
-0.03269746458
-0.01845102165
-0.006243990944
-0.001672158197
-0.004871865001
-0.04260791212
-0.0422775505
-0.04219378848
-0.04229406881
-0.04351171088
-0.04611425043
-0.05009728593
-0.05521788719
-0.0610124355
-0.06679347765
-0.07163742978
-0.07441040904
-0.07383010542
-0.06867258921
-0.05806981976
-0.0420598448
-0.0224381932
-0.003255484891
0.007348691915
0.008342984576
-0.05200839945
-0.05075913249
-0.04967600209
-0.04857709618
-0.04892488796
-0.05111818038
-0.05517070541
-0.06079390211
-0.06743309274
-0.07428742145
-0.08028034775
-0.0840739293
-0.0841285504
-0.07883564288
-0.06684109761
-0.04752184939
-0.02212598179
0.005503207191
0.02471673679
0.03352867614
-0.06365405098
-0.06018743988
-0.05709566459
-0.05376274862
-0.05246384968
-0.05367839996
-0.05736306099
-0.06313615278
-0.07026049268
-0.07779893108
-0.08449069555
-0.08878407585
-0.08889664734
-0.08283815532
-0.06884946699
-0.04561964352
-0.01375043108
0.02441798402
0.05554071051
0.07735689326
-0.08018473073
-0.07107339198
-0.06411977098
-0.05716414558
-0.05343028264
-0.05321425289
-0.05625784013
-0.06191270027
-0.06925772461
-0.07711568683
-0.08401102948
-0.08815066325
-0.08747932521
-0.07965535997
-0.06247847503
-0.03404959034
0.005565578016
0.05859501407
0.1058239369
0.1480686226
-0.1105062933
-0.08585371021
-0.07160586102
-0.05897098296
-0.05191337135
-0.04988298392
-0.0521026059
-0.05750857442
-0.06485926464
-0.0727081061
-0.07933959603
-0.08271307305
-0.08051908814
-0.06988624944
-0.04823158753
-0.0127218368
0.03823680582
0.1071327928
0.177979353
0.2564771773
-0.1684366296
-0.09990797887
-0.07500839235
-0.05479807666
-0.04461918526
-0.04158557649
-0.04371800812
-0.04938173878
-0.05701724597
-0.06497075532
-0.07136166859
-0.07398008554
-0.07012909828
-0.05701288431
-0.03102775639
0.01193006808
0.07560011776
0.1664048458
0.2761626153
0.4377049027
-0.3984279388
-0.1380992164
-0.07497055389
-0.04708868786
-0.03354974599
-0.03003042237
-0.03280243416
-0.03926504651
-0.04755867881
-0.05593915474
-0.06250019292
-0.06502938332
-0.06099482048
-0.04696887344
-0.01875591585
0.02993625584
0.1069563672
0.2334278958
0.4198808357
0.7800240315
)


// ************************************************************************* //
