/*--------------------------------*- C++ -*----------------------------------*\
  =========                 |
  \\      /  F ield         | OpenFOAM: The Open Source CFD Toolbox
   \\    /   O peration     | Website:  https://openfoam.org
    \\  /    A nd           | Version:  13
     \\/     M anipulation  |
\*---------------------------------------------------------------------------*/
FoamFile
{
    format      ascii;
    class       volScalarField;
    location    "10";
    object      p;
}
// * * * * * * * * * * * * * * * * * * * * * * * * * * * * * * * * * * * * * //

dimensions      [0 2 -2 0 0 0 0];

internalField   nonuniform List<scalar> 
100
(
-4.37002e-09
-0.000703287
-0.000838724
4.77302e-05
0.00206322
0.0050999
0.00853394
0.011026
0.0114049
0.0101544
0.000820308
2.03578e-05
-0.000230255
0.000368322
0.00193528
0.0045296
0.00768161
0.0101127
0.0104581
0.00898178
0.000622007
-0.000418198
-0.000970674
-0.000835883
0.000217732
0.00258718
0.00605331
0.00919834
0.00995156
0.00815942
-0.00173634
-0.00305459
-0.00410192
-0.0047213
-0.00443462
-0.00225987
0.00209537
0.00714359
0.00960014
0.00839527
-0.00701721
-0.00851895
-0.0102333
-0.0120819
-0.0132608
-0.0119065
-0.00655713
0.00177754
0.00843997
0.0105861
-0.0156953
-0.0170038
-0.0193447
-0.0228782
-0.0265044
-0.0272272
-0.0216202
-0.00889832
0.0056403
0.0160934
-0.0278156
-0.0278873
-0.0300256
-0.0350661
-0.0416637
-0.0455611
-0.0406861
-0.0227309
0.00412793
0.0289561
-0.0436606
-0.0396344
-0.0389289
-0.0440884
-0.0527191
-0.0589636
-0.0538612
-0.0280446
0.0181717
0.0679849
-0.0717059
-0.0505625
-0.0414068
-0.04451
-0.0532653
-0.0588083
-0.0491864
-0.00875077
0.0707661
0.175089
-0.153056
-0.0623499
-0.0338395
-0.0360265
-0.0448904
-0.0482343
-0.0314129
0.030102
0.157084
0.345048
)
;

boundaryField
{
    movingWall
    {
        type            zeroGradient;
    }
    fixedWalls
    {
        type            zeroGradient;
    }
    frontAndBack
    {
        type            empty;
    }
}


// ************************************************************************* //
