/*--------------------------------*- C++ -*----------------------------------*\
  =========                 |
  \\      /  F ield         | OpenFOAM: The Open Source CFD Toolbox
   \\    /   O peration     | Website:  https://openfoam.org
    \\  /    A nd           | Version:  13
     \\/     M anipulation  |
\*---------------------------------------------------------------------------*/
FoamFile
{
    format      ascii;
    class       volScalarField;
    location    "10";
    object      p;
}
// * * * * * * * * * * * * * * * * * * * * * * * * * * * * * * * * * * * * * //

dimensions      [0 2 -2 0 0 0 0];

internalField   nonuniform List<scalar> 
400
(
-3.082883339e-09
-0.000375257771
-0.0007883907008
-0.001039761167
-0.001040443879
-0.0007596017173
-0.0001918121368
0.0006531987114
0.001750161013
0.003052745444
0.004487263819
0.005949972101
0.007312001515
0.008434700923
0.009195121076
0.009517895405
0.009405325573
0.00895701653
0.008375758069
0.007938478503
0.000376114113
-1.064128623e-05
-0.0003612185997
-0.0005461877941
-0.0005110997229
-0.0002384194424
0.0002759417183
0.001026458381
0.001994689447
0.00314327949
0.004410014711
0.005705428404
0.006917062166
0.007923202821
0.008615692091
0.008927788394
0.008858856109
0.008487700686
0.00797438868
0.007524714033
0.0008052974241
0.0003117484812
-6.191282367e-05
-0.0002334990231
-0.0001930733532
5.651060583e-05
0.0005152878417
0.001182415884
0.002048604226
0.003087785707
0.004249452002
0.005454380266
0.0065973543
0.007559337838
0.008229797307
0.008534793505
0.008461602011
0.008069942183
0.007491046057
0.00690440809
0.001063
0.0004267889276
-2.144737494e-05
-0.0002231222356
-0.0002053328739
8.222199746e-06
0.0004127610694
0.001012738912
0.001809804144
0.002791026254
0.003917934771
0.005118773352
0.006288002296
0.007296587718
0.008014860521
0.008344134999
0.008246919666
0.007764011587
0.007022519341
0.00622039642
0.0009962876021
0.000209308546
-0.0003337659386
-0.0005902060405
-0.0006162024555
-0.0004525417398
-0.0001064739654
0.0004340272425
0.001184158336
0.002146852507
0.003297678676
0.004572195103
0.005860598016
0.007014476096
0.007869904484
0.00828478122
0.008180465991
0.007574236415
0.006607437903
0.005524665943
0.0004870200527
-0.0004471978807
-0.001091724254
-0.00141691745
-0.001504115496
-0.001407716252
-0.001134324112
-0.0006610873339
4.466927303e-05
0.001006695164
0.002220238927
0.003632947529
0.005132420478
0.006545810911
0.007660626616
0.00826807779
0.008221938223
0.007498293603
0.006258959516
0.004820721205
-0.0005690821531
-0.001643327335
-0.002392216444
-0.00279756527
-0.002965680528
-0.00296283449
-0.002792476347
-0.00241746261
-0.001782452148
-0.0008351079208
0.0004500354706
0.002044888047
0.003844217792
0.005652861186
0.007197573554
0.008173009002
0.008322323156
0.007539975241
0.00599572155
0.004107260704
-0.002268956625
-0.003474910792
-0.004331272905
-0.004829982256
-0.005105581034
-0.00523678447
-0.005222796842
-0.005009346119
-0.004512627377
-0.003641236506
-0.002323133895
-0.0005412355169
0.001629166312
0.003985565675
0.006189567801
0.007804891575
0.008399063927
0.007708166078
0.005863282433
0.003413719759
-0.004703842642
-0.006031558667
-0.006998530812
-0.007605672098
-0.008022757917
-0.008344390462
-0.008566680749
-0.008617077927
-0.008378205708
-0.007707756871
-0.006465751992
-0.004558559971
-0.001992571247
0.001058718655
0.004206436746
0.006854114405
0.008306851001
0.008013730567
0.005958830142
0.002843400728
-0.007959178788
-0.009394609538
-0.01047102681
-0.01119757561
-0.0117911402
-0.01236939003
-0.01292952048
-0.01338237599
-0.01357439025
-0.01330183577
-0.01233376354
-0.01045806755
-0.007559100239
-0.00371488636
0.0006845468764
0.004879011417
0.007816652237
0.008470017901
0.006467181285
0.002638956851
-0.01211600524
-0.0136361086
-0.01480605247
-0.01564381157
-0.01643271483
-0.01732548506
-0.01832788576
-0.01933915121
-0.02017087718
-0.0205516062
-0.02013904855
-0.01856075603
-0.01551570602
-0.01088811759
-0.004972706538
0.001359505715
0.006634611126
0.009112828086
0.007719153812
0.003290284062
-0.01726012223
-0.01882268881
-0.0200345764
-0.02092772857
-0.02188365908
-0.02310790365
-0.02462450255
-0.0263280513
-0.02800026885
-0.02930211638
-0.02976984531
-0.02884585183
-0.02595793904
-0.02070890863
-0.01314774717
-0.004116283534
0.004515843187
0.01007462047
0.01029181928
0.005713713207
-0.02351096512
-0.02503129996
-0.02615793784
-0.02695586871
-0.02795743593
-0.0294442305
-0.03146668513
-0.03391926508
-0.03655850324
-0.0389826244
-0.04060781976
-0.04067508897
-0.038317858
-0.03275165356
-0.02361571387
-0.01149383469
0.001533437254
0.01176657685
0.01518247336
0.01153390905
-0.0310956478
-0.03238837842
-0.03315044391
-0.03353554021
-0.03431170418
-0.03585987348
-0.03825450702
-0.04138371256
-0.0449755931
-0.04856798693
-0.05146581541
-0.05272017808
-0.0511721344
-0.04560771972
-0.03512449629
-0.01977542855
-0.0014813714
0.01521981454
0.02409868579
0.02347354905
-0.04051799681
-0.04115026217
-0.04096889542
-0.04035300152
-0.04042858388
-0.04167787987
-0.04416864957
-0.04775368123
-0.05211133978
-0.05670821483
-0.0607426527
-0.06309676401
-0.06234783318
-0.05688070953
-0.04520910463
-0.02663593592
-0.002434765514
0.02257781853
0.03988282842
0.04574178038
-0.05286662612
-0.05184616037
-0.04956131132
-0.0469455777
-0.04561225639
-0.04606344516
-0.04826931555
-0.05198241551
-0.05678338527
-0.06203394017
-0.06681197975
-0.06983946343
-0.06946611736
-0.0637224603
-0.05059022602
-0.02853952395
0.00224922238
0.03755025175
0.06700172508
0.08413025396
-0.07036491777
-0.06551485414
-0.05878516466
-0.05258185115
-0.04894001511
-0.04805807905
-0.04960963095
-0.05313684769
-0.0580462204
-0.06354108445
-0.06854524848
-0.07160816434
-0.07085061317
-0.06397240769
-0.04846218724
-0.02195235281
0.01678686722
0.06517516887
0.1120218388
0.1465193481
-0.09974973068
-0.08425570148
-0.06781683736
-0.0556963006
-0.04891088882
-0.04641347508
-0.0472175505
-0.05049387589
-0.05538828725
-0.06089381275
-0.06577924519
-0.06839940491
-0.06661148216
-0.05774926155
-0.03871665439
-0.006209540574
0.04287233051
0.1091506604
0.1837188131
0.2503268825
-0.1719824276
-0.1116103502
-0.07278757939
-0.05244907
-0.04287252483
-0.03949198418
-0.04025030904
-0.04384598027
-0.0491148253
-0.05483453571
-0.05969845197
-0.06200211387
-0.05932801768
-0.04864781374
-0.02621581716
0.01261058285
0.07397655967
0.164974817
0.2891902536
0.4405887798
-0.3518536925
-0.1515293114
-0.0684390306
-0.04221872377
-0.03213171142
-0.02889460715
-0.03033198406
-0.03486777004
-0.0410740134
-0.04760517793
-0.05302140213
-0.05554143243
-0.05276773966
-0.04158908639
-0.01767005238
0.02540347066
0.09821693847
0.2204628738
0.4218313041
0.7255294395
)
;

boundaryField
{
    movingWall
    {
        type            zeroGradient;
    }
    fixedWalls
    {
        type            zeroGradient;
    }
    frontAndBack
    {
        type            empty;
    }
}


// ************************************************************************* //
