/*--------------------------------*- C++ -*----------------------------------*\
  =========                 |
  \\      /  F ield         | OpenFOAM: The Open Source CFD Toolbox
   \\    /   O peration     | Website:  https://openfoam.org
    \\  /    A nd           | Version:  13
     \\/     M anipulation  |
\*---------------------------------------------------------------------------*/
FoamFile
{
    format      ascii;
    class       scalarField;
    location    "10";
    object      p_all;
}
// * * * * * * * * * * * * * * * * * * * * * * * * * * * * * * * * * * * * * //


400
(
2.023904093e-07
-0.000524644081
-0.0008467059927
-0.0009561831694
-0.0008625428824
-0.0005977301707
-0.0001986496059
0.000299401498
0.0008607613632
0.001446034802
0.002010814025
0.002503800614
0.002870864508
0.00305976533
0.003029012663
0.002759460899
0.002268655448
0.001611882467
0.0009747371052
0.0003934986598
0.0005644669909
6.881158782e-06
-0.0003365672898
-0.0004606290628
-0.0004129926137
-0.0002200679939
8.890338823e-05
0.0004847665359
0.0009364413928
0.001407310606
0.001859067622
0.002241228666
0.002504543683
0.00260240314
0.002500812564
0.002189718976
0.001693276293
0.001073525709
0.0004967342992
-0.0001531857204
0.0009080074514
0.000290135421
-8.928970263e-05
-0.0002167530389
-0.0001915384546
-4.344479706e-05
0.0002031952424
0.0005265980412
0.0009029088395
0.001301889954
0.001686982257
0.002010551747
0.002222257636
0.002274073134
0.002130866707
0.001781675486
0.001248179447
0.0005841751708
-9.352595613e-05
-0.0009112025452
0.0009190142229
0.0002302090587
-0.0001959724805
-0.0003279305519
-0.0003151094019
-0.0001939582031
1.404016584e-05
0.0002950290918
0.0006343003517
0.001010057851
0.001385341805
0.001714608433
0.001939437177
0.002000706618
0.001850111252
0.001463691245
0.000851544167
5.819791441e-05
-0.0008312345319
-0.00195132315
0.00042862248
-0.0003068010354
-0.0007602790043
-0.0008895937605
-0.0008842501219
-0.0007853811629
-0.0006096234183
-0.0003597762921
-3.767558752e-05
0.0003457433883
0.0007605739624
0.001159047136
0.001471922983
0.00162041462
0.001529740939
0.001147330126
0.0004585297622
-0.0005060289114
-0.001684243669
-0.003174546756
-0.0007081654315
-0.001460594053
-0.001923942873
-0.002049678588
-0.002059895312
-0.0019972957
-0.001869840387
-0.001664156125
-0.001362612078
-0.0009575368824
-0.000465321746
7.005447195e-05
0.0005680223133
0.0009219911573
0.001013428208
0.0007369998103
2.864334986e-05
-0.001109883846
-0.002643658524
-0.004604156365
-0.002624282529
-0.003362190586
-0.003828599875
-0.003964319928
-0.004020331547
-0.004037899184
-0.004011725479
-0.003905475636
-0.003672234885
-0.003272710648
-0.002695245953
-0.00196527882
-0.001167122955
-0.0004386354946
3.759406277e-05
6.668206848e-05
-0.0005094680429
-0.001755340637
-0.003688354853
-0.006230505423
-0.005428389378
-0.006126437481
-0.00659962995
-0.00677781905
-0.006938110787
-0.007118458486
-0.007296445275
-0.007405543851
-0.007357262849
-0.007062258637
-0.006456756544
-0.005514255383
-0.004305247323
-0.002988027148
-0.001825276702
-0.001150134937
-0.001288839777
-0.002449211283
-0.004767414022
-0.008004846112
-0.00919386719
-0.009832047452
-0.01032420191
-0.01059309063
-0.01094123496
-0.01140433978
-0.01194173766
-0.01245130012
-0.01279057178
-0.01279663989
-0.01231112727
-0.01124007021
-0.00956625208
-0.007439488426
-0.005199306558
-0.003365720769
-0.002539037966
-0.003207230867
-0.005768672074
-0.009780865015
-0.01394395432
-0.01450483543
-0.01502799933
-0.01543612824
-0.01606206343
-0.01694541871
-0.01803109834
-0.01918060427
-0.02018859602
-0.02079868927
-0.02073031667
-0.01973321875
-0.01766182018
-0.0145756259
-0.01084211254
-0.007184849274
-0.00459510518
-0.004048391676
-0.006472328643
-0.01122999314
-0.01964537641
-0.02010854511
-0.02065748857
-0.0212228998
-0.0221845269
-0.02359915694
-0.02540714545
-0.02743906638
-0.02942530982
-0.03100295143
-0.0317368318
-0.03117190608
-0.02895141584
-0.02492877088
-0.01938956439
-0.01320067851
-0.007815297499
-0.004944736446
-0.006475041767
-0.01170567685
-0.0262215225
-0.02655199728
-0.02707710998
-0.02774090198
-0.02900834923
-0.03097541094
-0.03359301681
-0.03667090618
-0.03988098721
-0.04275303771
-0.04468397657
-0.04497862484
-0.04300782468
-0.03829602607
-0.03088155717
-0.02160403291
-0.01231962742
-0.0056635718
-0.005059844859
-0.01003412175
-0.03359869475
-0.03371882269
-0.03408570255
-0.03465245035
-0.03604591276
-0.03843235776
-0.04178975317
-0.0459156018
-0.05043006174
-0.05476265297
-0.05815114188
-0.05968068335
-0.05834284405
-0.05332443903
-0.04423656168
-0.03163262756
-0.01752664697
-0.005446955356
-0.0009712131453
-0.004225587834
-0.04180984312
-0.04152753538
-0.0414559354
-0.04152596566
-0.04266544251
-0.0451473955
-0.04898644069
-0.05396478276
-0.05964681074
-0.06536533584
-0.07020786783
-0.07303775228
-0.07256036235
-0.06753038815
-0.05705972589
-0.0411713981
-0.02166178364
-0.002578205511
0.007933516041
0.008848466853
-0.05119331607
-0.05000230725
-0.04895328787
-0.04785084644
-0.04814387503
-0.05023231272
-0.05415209582
-0.05964209524
-0.0661837729
-0.07299770681
-0.0790201048
-0.08290884792
-0.08310606582
-0.07797406872
-0.06613017173
-0.04692535363
-0.02161486172
0.005953076972
0.02510776103
0.03384194389
-0.06287657188
-0.05947692675
-0.05644476611
-0.05313949338
-0.05181105254
-0.05293359932
-0.05649406626
-0.062127112
-0.06916334142
-0.0766732127
-0.08341503114
-0.08783239805
-0.08812125177
-0.08225979971
-0.06845321199
-0.04534675174
-0.01356922724
0.02458462471
0.05568287618
0.07745502558
-0.07950514227
-0.07046791161
-0.06360076189
-0.05670024025
-0.0529558128
-0.05264734647
-0.05555596899
-0.06107029515
-0.06831488908
-0.07614180271
-0.08309226103
-0.08736755537
-0.08689046404
-0.07929251627
-0.0623274974
-0.03406153717
0.005366343026
0.05862125534
0.1057445416
0.1479716342
-0.1099740622
-0.08540018403
-0.07126272487
-0.05868973166
-0.05164470423
-0.04950049841
-0.05156750103
-0.05681660019
-0.0640516529
-0.07185890065
-0.07853968688
-0.08205002135
-0.08008594116
-0.06965088304
-0.04821289824
-0.01287467351
0.03797451215
0.1068881658
0.1777285645
0.2562149385
-0.168044062
-0.09958045742
-0.07481368498
-0.05467999953
-0.04448721872
-0.0413424199
-0.04331315316
-0.04880910207
-0.05631636982
-0.06421300405
-0.07063291009
-0.07335969901
-0.06967233654
-0.05680732844
-0.03103667372
0.01174944273
0.07530746259
0.1660810316
0.2758302103
0.4373912353
-0.3980445416
-0.137803523
-0.07481525327
-0.04702512984
-0.03348084998
-0.02985878409
-0.03247255461
-0.03876744182
-0.04692724542
-0.05523933967
-0.06181360049
-0.06443689404
-0.06056019239
-0.0467388539
-0.01872375088
0.02980249485
0.1067078859
0.2331316554
0.4195718556
0.7797259559
)


// ************************************************************************* //
