/*--------------------------------*- C++ -*----------------------------------*\
  =========                 |
  \\      /  F ield         | OpenFOAM: The Open Source CFD Toolbox
   \\    /   O peration     | Website:  https://openfoam.org
    \\  /    A nd           | Version:  13
     \\/     M anipulation  |
\*---------------------------------------------------------------------------*/
FoamFile
{
    format      ascii;
    class       surfaceScalarField;
    location    "10";
    object      phi;
}
// * * * * * * * * * * * * * * * * * * * * * * * * * * * * * * * * * * * * * //

dimensions      [0 3 -1 0 0 0 0];

internalField   nonuniform List<scalar> 
760
(
-5.162373633e-07
5.166681421e-07
-3.794711862e-05
3.743066891e-05
-0.000111685189
7.37375628e-05
-0.0002090645701
9.737894901e-05
-0.0003176031284
0.0001085386017
-0.0004269134125
0.0001093107323
-0.0005283008434
0.000101388092
-0.0006139270657
8.562660645e-05
-0.000676314467
6.238767061e-05
-0.0007084761161
3.216199828e-05
-0.0007047084317
-3.767672161e-06
-0.0006619233854
-4.278469843e-05
-0.0005812047441
-8.071841077e-05
-0.0004691308678
-0.0001120739027
-0.0003382821312
-0.0001308486568
-0.0002063699717
-0.0001319118312
-9.364629452e-05
-0.0001127237073
-1.852848218e-05
-7.511826282e-05
8.84337358e-06
-2.737241885e-05
8.843204686e-06
-3.896206117e-05
3.947859884e-05
-0.0001635017692
0.0001619693105
-0.0003630937043
0.0002733284181
-0.0006118565804
0.0003461417992
-0.0008833534437
0.0003800362569
-0.001153899626
0.0003798578018
-0.001402527088
0.0003500167279
-0.001610053446
0.0002931543106
-0.001758590984
0.0002109254538
-0.001832129812
0.0001057013989
-0.001818359571
-1.753723493e-05
-0.001711417471
-0.0001497258268
-0.001515055309
-0.0002770798365
-0.00124513735
-0.0003819911678
-0.0009303922241
-0.0004455939759
-0.000610191825
-0.0004521127976
-0.0003286136484
-0.0003943022653
-0.0001248524815
-0.0002788796211
-2.095847952e-05
-0.0001312664031
-1.211586014e-05
-8.348924386e-05
0.0001229673377
-0.000300459876
0.0003789386982
-0.0006158438172
0.0005887119226
-0.0009926340563
0.0007229323511
-0.001395437859
0.0007828418262
-0.001792260128
0.0007766817613
-0.00215422608
0.0007119832138
-0.002454718513
0.0005936477835
-0.00266909063
0.0004252985162
-0.00277558739
0.0002121988257
-0.00275764669
-3.547683558e-05
-0.002607327285
-0.0003000433578
-0.002329204386
-0.0005552020986
-0.001943701559
-0.0007674944274
-0.00148842283
-0.0009008735547
-0.001015871948
-0.0009246636988
-0.0005862744952
-0.0008239006067
-0.0002554507809
-0.0006097058251
-5.995881274e-05
-0.0003267558004
-7.20754237e-05
-0.0001238094063
0.0002467763818
-0.0004272697749
0.0006823985851
-0.0008500053626
0.001011448201
-0.001342096771
0.001215024631
-0.001860321213
0.001301067423
-0.002366954758
0.001283316132
-0.002828163375
0.001173191712
-0.003212578381
0.0009780629347
-0.003490795901
0.0007035177194
-0.003636282687
0.0003576872323
-0.00362784258
-4.391614349e-05
-0.003453497676
-0.000474387533
-0.003115262718
-0.0008934366483
-0.002633852147
-0.001248904548
-0.002051703373
-0.001483022298
-0.001432072545
-0.001544293785
-0.000851909814
-0.00140406387
-0.0003876827755
-0.001073933002
-9.715012413e-05
-0.0006172884083
-0.0001692263805
-0.0001596934967
0.0004064696316
-0.0005426035404
0.001065309029
-0.00106502915
0.001533874567
-0.00166416929
0.001814165114
-0.002289652296
0.001926550268
-0.00289961867
0.001893282475
-0.003457272005
0.001730845421
-0.003928304295
0.001449095223
-0.004279660499
0.001054874982
-0.0044799881
0.0005580166917
-0.004501950433
-2.195194667e-05
-0.004326456363
-0.0006498809849
-0.003948581067
-0.001271312449
-0.003384469408
-0.001813015619
-0.002677510934
-0.002189979448
-0.001900706524
-0.002321096545
-0.001151161356
-0.002153608202
-0.0005337199848
-0.001691373546
-0.0001360786332
-0.001014932648
-0.0003053056359
-0.0001922519249
0.0005987215099
-0.0006483933848
0.001521451083
-0.001263829874
0.002149311454
-0.001963885303
0.002514220469
-0.002692054296
0.002654718176
-0.003403771033
0.0026049979
-0.004060934339
0.002388008609
-0.004627767253
0.002015929016
-0.005068384355
0.001495493884
-0.005346332176
0.0008359658984
-0.005426357984
5.80754568e-05
-0.005278762676
-0.0007974754042
-0.00488655143
-0.00166352368
-0.004255211625
-0.002444354513
-0.003423600025
-0.003021589009
-0.002472100964
-0.003272595579
-0.001521470774
-0.003104238224
-0.0007151311403
-0.002497716153
-0.0001839247714
-0.001546141554
-0.0004892313733
-0.0002224307611
0.000821152457
-0.0007463144448
0.002045335306
-0.001448389326
0.002851386156
-0.002243358786
0.003309188531
-0.003069871571
0.003481228847
-0.003882200431
0.003417325432
-0.004642647119
0.00314845556
-0.005315560692
0.002688843923
-0.005863346394
0.00204328154
-0.006244672163
0.001217292371
-0.006415212569
0.000228616628
-0.006331613761
-0.0008810738823
-0.00595950735
-0.002035629527
-0.005286252996
-0.003117608866
-0.004337767
-0.003970074248
-0.003195507673
-0.004414856419
-0.002004423874
-0.004295322114
-0.0009578022868
-0.003544342589
-0.0002494519336
-0.002254492021
-0.0007386840381
-0.0002507057622
0.001071858413
-0.0008367877527
0.002631416802
-0.001618149454
0.003632746528
-0.002499911989
0.004190949063
-0.003417213729
0.004398528469
-0.004324841393
0.004324952098
-0.00518742389
0.004011038851
-0.005971455423
0.003472876729
-0.006639527807
0.002711355013
-0.00714686817
0.001724632406
-0.007440509352
0.0005222583196
-0.007462056537
-0.000859526898
-0.007155515275
-0.002342169143
-0.006482039957
-0.003791083578
-0.00544284786
-0.005009266894
-0.004107823372
-0.005749882188
-0.002639508935
-0.005763636489
-0.001289852091
-0.004894000212
-0.0003427832376
-0.003201561814
-0.001081467313
-0.0002772676303
0.001349126023
-0.0009192165016
0.003273364418
-0.001770113005
0.00448364076
-0.002725979894
0.005146814046
-0.003719617944
0.005392165189
-0.004708053551
0.005313386789
-0.005660398792
0.004963384196
-0.006547853024
0.004360331303
-0.007336150094
0.00349965273
-0.007980287073
0.002368769139
-0.008421632493
0.0009636055033
-0.008588428188
-0.0006927308713
-0.008401824449
-0.002528771741
-0.007790091106
-0.00440281556
-0.006715819381
-0.00608353888
-0.005217060206
-0.00724864046
-0.003455067314
-0.00752563049
-0.001739389047
-0.006609676375
-0.0004757023564
-0.00446525203
-0.001557171634
-0.0003025591054
0.001651684881
-0.0009931648532
0.003963968785
-0.001900368071
0.005390841719
-0.002910739091
0.006157183604
-0.003955667323
0.00643709276
-0.0049961607
0.00635387941
-0.006008152015
0.005975374553
-0.006970593817
0.005322771736
-0.00785639252
0.004385451851
-0.008625506482
0.003137883828
-0.009219801146
0.001557902368
-0.009560043972
-0.0003524859271
-0.00954874028
-0.002540074502
-0.009079099762
-0.004872455346
-0.008062503118
-0.007100136394
-0.006478861084
-0.008832281932
-0.004452911084
-0.009551583721
-0.002329504401
-0.008733085131
-0.0006618488344
-0.006132907566
-0.002219020677
-0.0003282678694
0.001979952431
-0.001060564028
0.004696263952
-0.002007040918
0.006337316608
-0.00304346634
0.007193607272
-0.004100736847
0.007494361899
-0.005145805969
0.007398947268
-0.006163966997
0.006993534192
-0.007145287587
0.006304090371
-0.008074618764
0.00531478319
-0.008923666165
0.003986934371
-0.009644014063
0.002278251486
-0.01015936007
0.0001628592636
-0.01036503795
-0.002334399244
-0.01012503579
-0.005112458988
-0.009294190411
-0.007930980948
-0.007768058239
-0.0103584119
-0.005584279982
-0.0117353599
-0.003067346205
-0.01125002155
-0.0009160918072
-0.008284160866
-0.003135109586
-0.0003590106413
0.002338962595
-0.001129156511
0.005466409112
-0.002094612598
0.007302771197
-0.003118272064
0.00821726478
-0.004132379328
0.008508466822
-0.005112732368
0.008379298339
-0.006056989965
0.007937790613
-0.006969803549
0.007216904255
-0.007852808255
0.006197786845
-0.008696668432
0.004830794633
-0.009472885599
0.003054468026
-0.010125274
0.0008152466673
-0.01055521413
-0.00190445989
-0.01061740218
-0.005050270957
-0.01011823142
-0.008430150278
-0.008853755802
-0.01162288995
-0.006718858867
-0.01387025698
-0.003924007797
-0.01404487335
-0.001251718103
-0.01095645627
-0.00438682971
-0.0004051416996
0.002744103888
-0.001217410384
0.006278676725
-0.002179070707
0.008264430554
-0.003138836153
0.009177029271
-0.004035297025
0.00940492624
-0.004858450881
0.009202451044
-0.005622451313
0.008701789268
-0.006350006403
0.007944459265
-0.007063549017
0.006911329481
-0.007778696062
0.005545940233
-0.008496769493
0.003772539667
-0.009193960295
0.001512437092
-0.009803588491
-0.001294830959
-0.01019608691
-0.004657772254
-0.01015727686
-0.008468960012
-0.009393309668
-0.01238685937
-0.007616328933
-0.01564723743
-0.004804489567
-0.01685670672
-0.001672758112
-0.01408818637
-0.006059586438
-0.0004874722343
0.00323157596
-0.001360799574
0.00715200261
-0.002291885102
0.009195515367
-0.003119197218
0.01000434202
-0.003800283438
0.0100860131
-0.004349631832
0.009751798025
-0.004804102459
0.009156258254
-0.005207896442
0.008348252837
-0.005606492781
0.007309926593
-0.006043083612
0.005982530933
-0.006553807012
0.004283262159
-0.007158024117
0.002116655104
-0.007839963979
-0.0006128896142
-0.008518951809
-0.003978784843
-0.009005826961
-0.007982087752
-0.008961397613
-0.01243128805
-0.0079174955
-0.01669113759
-0.005513511311
-0.01926069192
-0.002156950718
-0.01744474916
-0.008216538476
-0.0006443312035
0.003875907134
-0.001616932479
0.008124603379
-0.002475630291
0.01005421333
-0.003069156233
0.01059786846
-0.003402422405
0.01041928056
-0.003532796266
0.009882171913
-0.00352884682
0.009152307741
-0.003459439286
0.008278845428
-0.003392851832
0.007243339362
-0.003397719341
0.005987397853
-0.00354319135
0.004428732416
-0.003893138839
0.002466601168
-0.004492144757
-1.388373576e-05
-0.005335258478
-0.003135669014
-0.006311826404
-0.00700551961
-0.007116840155
-0.01162627311
-0.007169749297
-0.01663823037
-0.005729569013
-0.02070087747
-0.002622481134
-0.0205518323
-0.01083901967
-0.0009349502715
0.004810857406
-0.002055573886
0.009245227977
-0.002744600835
0.01074324085
-0.002928078969
0.01078134693
-0.002717260433
0.0102084621
-0.002240961392
0.009405874322
-0.001609595643
0.00852094422
-0.0009176901505
0.00758694203
-0.0002523018716
0.00657795168
0.0002994544185
0.005435641499
0.0006460068293
0.004082181313
0.0006891976286
0.002423411546
0.0003300269506
0.0003452868767
-0.0005094293198
-0.002296212942
-0.001837985402
-0.005676962614
-0.003480023767
-0.009984231939
-0.004882679044
-0.01523557084
-0.004999671304
-0.0205838826
-0.002870144478
-0.02268135833
-0.0137091649
-0.001419267586
0.006230125015
-0.002678024573
0.01050398606
-0.002910370385
0.01097558727
-0.002330173181
0.01020114807
-0.001262165323
0.009140454293
6.645633434e-05
0.008077254433
0.0015050708
0.007082333067
0.002943599456
0.006148414903
0.004290066094
0.005231483857
0.005454837323
0.004270871276
0.006337732546
0.003199290982
0.006824397408
0.001936748188
0.006784354492
0.0003853268943
0.006077066595
-0.001588928089
0.004573815161
-0.004173710876
0.002246564342
-0.007656983008
-0.0005691900578
-0.01241981598
-0.002762910623
-0.01839016362
-0.00253256958
-0.02291170221
-0.01624173246
-0.00212599174
0.008356116675
-0.003000179046
0.01137817173
-0.001916332377
0.009891742473
0.0001007289262
0.008184088064
0.00244825627
0.0067929278
0.00485805039
0.005667460793
0.007193964853
0.004746419049
0.009372041385
0.003970338847
0.01132871934
0.003274806047
0.01299833453
0.002601256583
0.01429387292
0.001903753171
0.0151092315
0.001121391492
0.01531190871
0.0001826552877
0.01473795762
-0.00101497447
0.01318422517
-0.002619981824
0.01040594764
-0.004878703497
0.00633415393
-0.00834802521
0.001687195091
-0.01374320615
-0.001177293377
-0.02004721203
-0.01741902806
-0.002449701775
0.01080581823
3.630621868e-05
0.008892160496
0.004202143041
0.005725905895
0.008263016417
0.004123216391
0.01193080292
0.003125141468
0.01519391875
0.002404345241
0.01806133048
0.001879009191
0.02054653757
0.001485133907
0.02265259544
0.001168749389
0.02436354299
0.0008903103001
0.02565129636
0.0006160003718
0.02645774498
0.0003149406142
0.02667583794
-3.543930345e-05
0.02613871627
-0.0004778464363
0.02459439246
-0.00107566042
0.02169538651
-0.001979695979
0.01693186514
-0.003584506624
0.009919346044
-0.006730687262
0.002201863885
-0.01232973089
-0.01521716222
0.01080581831
0.01969797904
0.02542388472
0.02954710062
0.03267224239
0.03507658867
0.03695559775
0.03844073114
0.03960948266
0.04049979527
0.04111579405
0.04143073547
0.04139529573
0.04091744779
0.03984178666
0.03786209056
0.03427758528
0.02754689596
0.01521716229
)
;

boundaryField
{
    movingWall
    {
        type            calculated;
        value           uniform 0;
    }
    fixedWalls
    {
        type            calculated;
        value           uniform 0;
    }
    frontAndBack
    {
        type            empty;
    }
}


// ************************************************************************* //
