/*--------------------------------*- C++ -*----------------------------------*\
  =========                 |
  \\      /  F ield         | OpenFOAM: The Open Source CFD Toolbox
   \\    /   O peration     | Website:  https://openfoam.org
    \\  /    A nd           | Version:  13
     \\/     M anipulation  |
\*---------------------------------------------------------------------------*/
FoamFile
{
    format      ascii;
    class       surfaceScalarField;
    location    "10";
    object      phi;
}
// * * * * * * * * * * * * * * * * * * * * * * * * * * * * * * * * * * * * * //

dimensions      [0 3 -1 0 0 0 0];

internalField   nonuniform List<scalar> 
760
(
-1.319789656e-05
1.319539825e-05
-7.065074667e-05
5.745280974e-05
-0.0001583116501
8.766083744e-05
-0.0002586152115
0.000100303622
-0.0003588194398
0.0001002041661
-0.0004496593083
9.083981211e-05
-0.0005241453992
7.448608966e-05
-0.000576733455
5.258806272e-05
-0.0006030663779
2.633293845e-05
-0.00060020341
-2.862973471e-06
-0.0005670498712
-3.315354776e-05
-0.000505123367
-6.192648537e-05
-0.0004190346386
-8.608870704e-05
-0.0003167604756
-0.0001022741465
-0.0002093861405
-0.0001073743097
-0.0001101605516
-9.922555154e-05
-3.271032566e-05
-7.74501746e-05
1.172344178e-05
-4.443369689e-05
2.060568225e-05
-8.882123688e-06
2.060582194e-05
-6.687082361e-05
8.006641918e-05
-0.0002387470882
0.000229329057
-0.0004789533813
0.0003278669891
-0.0007493380203
0.000370688253
-0.001019298877
0.0003701649746
-0.001264915653
0.0003364565436
-0.001467434893
0.0002770053197
-0.00161201613
0.0001971692778
-0.001687305821
0.0001016226211
-0.001686055343
-4.113455295e-06
-0.001605632627
-0.0001135762696
-0.001450169969
-0.0002173891459
-0.001231227017
-0.0003050316391
-0.000968422847
-0.0003650782756
-0.0006887370834
-0.0003870600103
-0.000424057611
-0.0003639049377
-0.000206664023
-0.000294843626
-6.227576542e-05
-0.0001888218141
-1.795597312e-06
-6.93621139e-05
1.881026215e-05
-0.0001189599848
0.0001990263512
-0.0004014813307
0.0005118503365
-0.0007824380722
0.0007088236291
-0.001207052665
0.0007953028945
-0.00163124969
0.0007943619809
-0.002019681205
0.0007248879965
-0.002343880361
0.0006012044289
-0.002580860737
0.0004341496157
-0.002712732817
0.0002334946723
-0.002727465523
1.061921876e-05
-0.002620162815
-0.0002208790014
-0.002395371715
-0.0004421802576
-0.002068656288
-0.0006317470826
-0.001667591859
-0.0007661427179
-0.001231053952
-0.0008235979066
-0.000805969671
-0.0007889891687
-0.0004408382357
-0.0006599749723
-0.0001760428922
-0.0004536170563
-3.268443068e-05
-0.0002127204706
-1.387420068e-05
-0.0001661208407
0.0003651470712
-0.0005529864204
0.0008987158997
-0.001068694614
0.001224531719
-0.00164178056
0.00136838884
-0.002216271575
0.001368852959
-0.002747471309
0.00125608766
-0.003198843697
0.001052576758
-0.003540033326
0.0007753391984
-0.003746314919
0.0004397762597
-0.00379932857
6.363285653e-05
-0.003689438876
-0.00033076871
-0.003417926656
-0.0007136924893
-0.003000281715
-0.00104939204
-0.00246822647
-0.001298197977
-0.001870049261
-0.001421775129
-0.001267657808
-0.001391380622
-0.0007290543795
-0.001198578386
-0.0003161300503
-0.0008665413686
-7.05391491e-05
-0.0004583113594
-8.441345285e-05
-0.0002094969331
0.0005746439484
-0.0006943626678
0.001383581664
-0.001339395165
0.001869564147
-0.002057631019
0.002086624647
-0.002782774866
0.002093996756
-0.003462531991
0.001935844707
-0.004053679789
0.001643724481
-0.00451899586
0.001240655194
-0.004826160314
0.0007469406511
-0.004948493386
0.0001859658683
-0.004867624856
-0.0004116372984
-0.004576887307
-0.001004430097
-0.004086267609
-0.001540011801
-0.00342677119
-0.001957694444
-0.002653352647
-0.0021951937
-0.00184398314
-0.002200750142
-0.001092225645
-0.001950335899
-0.0004919575283
-0.00146680951
-0.0001172042543
-0.000833064651
-0.0002016178081
-0.000248894811
0.0008235387327
-0.0008238595907
0.001958546439
-0.001590379505
0.002636084
-0.002448558253
0.002944803291
-0.003323970555
0.002969408997
-0.004158708753
0.002770582811
-0.004904401802
0.002389417419
-0.005517635434
0.001853888721
-0.005957898327
0.001187203467
-0.006187952831
0.000416020303
-0.006176773454
-0.0004228167369
-0.005904046116
-0.001277157493
-0.005367458044
-0.002076599938
-0.004590464782
-0.002734687763
-0.003629760827
-0.003155897685
-0.002578925088
-0.003251585887
-0.001563449216
-0.002965811794
-0.0007224940232
-0.002307764744
-0.0001787198231
-0.001376838894
-0.000380337657
-0.0002826007633
0.001106139446
-0.0009361248978
0.002612070516
-0.001811025809
0.003510984873
-0.002798004087
0.003931781425
-0.00381730963
0.003988714494
-0.004807869549
0.003761142663
-0.005718226535
0.003299774304
-0.006500169115
0.002635831199
-0.007105321022
0.0017923553
-0.007484686918
0.0007953861393
-0.007591490766
-0.0003160129446
-0.007386309972
-0.001482338356
-0.006846856714
-0.002616053234
-0.005979694043
-0.003601850452
-0.004834174523
-0.004301417207
-0.0035142102
-0.0045715502
-0.002180406783
-0.004299615234
-0.001031995061
-0.003456176508
-0.000263576987
-0.002145256955
-0.0006439145768
-0.0003082310719
0.00141437045
-0.001023119956
0.0033269593
-0.001985393234
0.004473258135
-0.003080196768
0.005026584773
-0.004225559402
0.005134077089
-0.00536008432
0.004895667534
-0.006431975035
0.004371664922
-0.007390777832
0.003594633896
-0.008182309048
0.002583886445
-0.00874683074
0.001359907788
-0.009021300849
-4.154287637e-05
-0.008943403742
-0.001560235487
-0.008464095789
-0.00309536123
-0.007561832203
-0.00450411405
-0.006264301113
-0.005598948282
-0.004672133158
-0.006163718132
-0.002975718322
-0.005996030101
-0.001446378113
-0.004985516756
-0.0003819150032
-0.003209719943
-0.001025829481
-0.000323297055
0.00173766745
-0.001076229647
0.004079891788
-0.002095438033
0.005492466558
-0.003264181123
0.006195327656
-0.004501288922
0.006371184866
-0.00574803996
0.006142418551
-0.006955669474
0.005579294352
-0.008075384409
0.004714348734
-0.009051525385
0.003560027343
-0.009818046494
0.002126428842
-0.01029781688
0.0004382274839
-0.01040857869
-0.00144947371
-0.01006970345
-0.003434236508
-0.009221178817
-0.0053526387
-0.00785061089
-0.006969516195
-0.006031229272
-0.007983099731
-0.003962671915
-0.008064587516
-0.001988490341
-0.006959698374
-0.000545253343
-0.004652956717
-0.001571082796
-0.0003266081965
0.002064275623
-0.001089643297
0.004842926787
-0.002126372041
0.006529195406
-0.003321011794
0.007389967216
-0.004595817503
0.007645990586
-0.00589765179
0.007444252862
-0.007184510856
0.006866153373
-0.008414264564
0.005944102365
-0.009536301848
0.004682064544
-0.01048602184
0.003076148802
-0.01118201027
0.001134215891
-0.01152695778
-0.001104526219
-0.01141311357
-0.003548080738
-0.01073656663
-0.006029185683
-0.009426721916
-0.008279360926
-0.007496560516
-0.009913261163
-0.005114136016
-0.01044701212
-0.002669787584
-0.009404046836
-0.0007658939852
-0.006556850041
-0.002336976895
-0.0003200917601
0.002384367409
-0.001064847895
0.005587682845
-0.002073906366
0.007538254046
-0.003233863599
0.0085499243
-0.004472665153
0.008884792189
-0.005745627724
0.008717215501
-0.007021391175
0.008141916833
-0.008270052574
0.007192763737
-0.009453944084
0.005865956019
-0.01052052434
0.004142729017
-0.01139674853
0.002010440074
-0.01198454175
-0.0005167330262
-0.01216157706
-0.003371045473
-0.01178485767
-0.006405905081
-0.01071580201
-0.009348416559
-0.008873839949
-0.01175522323
-0.00633645363
-0.01298439856
-0.003476493019
-0.01226400743
-0.001055117948
-0.008978224871
-0.003392095077
-0.0003111773863
0.002695544866
-0.001016005802
0.006292511213
-0.001952516798
0.008474765257
-0.003009437247
0.009606844652
-0.004123076763
0.009998431777
-0.005260708201
0.009854847022
-0.006405741006
0.009286949657
-0.007545906245
0.008332928943
-0.00866411782
0.006984167575
-0.009730710534
0.005209321736
-0.01069571618
0.002975445752
-0.01147863799
0.0002661888106
-0.01196395875
-0.002885724688
-0.01198851693
-0.006381346889
-0.01135338555
-0.009983547895
-0.009865019405
-0.0132435894
-0.00744725666
-0.01540216143
-0.004350307764
-0.01536095626
-0.001419116271
-0.01190941625
-0.004811211526
-0.0003161716661
0.003011716651
-0.0009760712142
0.006952410741
-0.001803303878
0.009301998143
-0.002687577004
0.01049111773
-0.003578592076
0.01088944692
-0.004461254914
0.01073750994
-0.005338761951
0.01016445671
-0.006221234481
0.009215401451
-0.007117740748
0.007880673785
-0.008029326636
0.006120907631
-0.008940615921
0.003886735046
-0.009809661502
0.001135234432
-0.01054758412
-0.002147802029
-0.01100587171
-0.005923059237
-0.01095598527
-0.01003343423
-0.01010197728
-0.01409759736
-0.008172267215
-0.01733187162
-0.005167796332
-0.01836542706
-0.001851217058
-0.01522599561
-0.006662428594
-0.0003654471973
0.003377163995
-0.001003497528
0.007590461067
-0.001699212957
0.009997713745
-0.002344347613
0.01113625238
-0.002912953667
0.01145805304
-0.003417678612
0.01124223497
-0.003888450128
0.01063522822
-0.004361916892
0.009688868211
-0.0048757961
0.008394552891
-0.005464329267
0.006709440722
-0.006151841454
0.004574247245
-0.006942553363
0.001925946383
-0.007801233961
-0.001289121382
-0.008627188339
-0.005097104789
-0.009214311317
-0.00944631112
-0.009215218314
-0.0140966902
-0.008170928457
-0.01837616146
-0.005727261728
-0.02080909368
-0.002319854372
-0.01863340314
-0.008982282791
-0.0005125100494
0.003889674186
-0.001188328991
0.008266280036
-0.0017415748
0.01055095966
-0.002078089059
0.01147276669
-0.002219020206
0.01159898428
-0.002221476917
0.0112446918
-0.002151403141
0.01056515445
-0.002075476602
0.009612941698
-0.002059310873
0.008378387169
-0.00216732796
0.006817457737
-0.002460183988
0.004867103215
-0.00298860547
0.002454367853
-0.003780068707
-0.0004976581081
-0.004810354441
-0.004066818899
-0.005954657952
-0.00830200746
-0.006900685091
-0.01315066283
-0.007078570007
-0.01819827631
-0.005746390406
-0.02214127306
-0.002746484237
-0.02163330938
-0.01172876677
-0.0008433451115
0.004733019408
-0.001644024875
0.009066959863
-0.002023318285
0.01093025316
-0.001945559621
0.01139500802
-0.001522353343
0.01117577806
-0.0008797128421
0.01060205145
-0.0001304159855
0.009815857727
0.0006278452515
0.008854680515
0.001304457573
0.007701774871
0.00181147561
0.00631043972
0.002060403014
0.004618175823
0.001962525023
0.002552245881
0.001432029929
3.283707563e-05
0.0004103734199
-0.003045162267
-0.001099949492
-0.006791684413
-0.002921924114
-0.01132868822
-0.004527898213
-0.01659230219
-0.004847524808
-0.02182164638
-0.002955321072
-0.02352551314
-0.01468408769
-0.001475728524
0.006208748028
-0.002413593011
0.01000482433
-0.002438623384
0.01095528371
-0.00170208519
0.01065846973
-0.00047954998
0.009953242984
0.001008529766
0.009113971386
0.002599455289
0.008224932343
0.004168753311
0.007285382609
0.005610674224
0.006259854121
0.006823998178
0.005097115967
0.007703764078
0.003738410096
0.008136173616
0.002119836527
0.007995059356
0.0001739514347
0.007153363406
-0.002203466465
0.005491740986
-0.005130061721
0.002999441494
-0.008836388575
3.089538546e-05
-0.01362375606
-0.002478503152
-0.01931224795
-0.002612741311
-0.02339127509
-0.01729682907
-0.00236957643
0.008578324569
-0.002982374501
0.01061762198
-0.001964816138
0.009937725666
1.047790719e-05
0.008683175896
0.002437190711
0.007526530497
0.005018606664
0.00653255563
0.007580504625
0.005663034545
0.01000574532
0.004860141934
0.01219926748
0.004066331942
0.01406779541
0.003228588019
0.0155086202
0.002297585304
0.0164024234
0.001226033195
0.01659704579
-2.067106483e-05
0.01594541897
-0.001551839662
0.0142395995
-0.003424242403
0.0112811967
-0.005877985725
0.007014428189
-0.009356987378
0.002176288373
-0.01447410807
-0.001038333528
-0.02017665313
-0.01833516259
-0.002147627573
0.01072595232
-7.204242278e-05
0.008542036535
0.003731232908
0.006134450628
0.007691658935
0.004722749729
0.01151239995
0.003705789603
0.01507085947
0.002974096113
0.01831173831
0.002422155684
0.02120341535
0.001968464802
0.02371023606
0.001559511102
0.02578037731
0.001158446654
0.02733984621
0.0007381164381
0.02828656726
0.0002793120361
0.02851488691
-0.0002489906639
0.02784166464
-0.0008786172884
0.02606641239
-0.001648990077
0.02288505305
-0.002696626215
0.01788950037
-0.004361434436
0.01075539174
-0.007339999337
0.002907199196
-0.01232846066
-0.01542796321
0.01072595261
0.01926798921
0.02540243984
0.03012518963
0.03383097936
0.03680507551
0.03922723114
0.04119569584
0.04275520679
0.04391365324
0.04465176956
0.04493108189
0.04468209131
0.04380347411
0.04215448401
0.03945785769
0.03509642327
0.02775642393
0.01542796321
)
;

boundaryField
{
    movingWall
    {
        type            calculated;
        value           uniform 0;
    }
    fixedWalls
    {
        type            calculated;
        value           uniform 0;
    }
    frontAndBack
    {
        type            empty;
    }
}


// ************************************************************************* //
