/*--------------------------------*- C++ -*----------------------------------*\
  =========                 |
  \\      /  F ield         | OpenFOAM: The Open Source CFD Toolbox
   \\    /   O peration     | Website:  https://openfoam.org
    \\  /    A nd           | Version:  13
     \\/     M anipulation  |
\*---------------------------------------------------------------------------*/
FoamFile
{
    format      ascii;
    class       surfaceScalarField;
    location    "10";
    object      phi_0;
}
// * * * * * * * * * * * * * * * * * * * * * * * * * * * * * * * * * * * * * //

dimensions      [0 3 -1 0 0 0 0];

internalField   nonuniform List<scalar> 
180
(
-0.000257623
0.000257626
-0.000966543
0.000708917
-0.00187017
0.000903624
-0.0027182
0.000848026
-0.00326568
0.00054748
-0.00326964
3.96645e-06
-0.00258042
-0.000689228
-0.00139356
-0.00118686
-0.00032105
-0.0010725
-0.000321042
-0.000888268
0.00114589
-0.00269227
0.00251291
-0.00477275
0.0029841
-0.00661539
0.00269068
-0.0077328
0.0016649
-0.00767745
-5.13872e-05
-0.00620708
-0.00215962
-0.00364547
-0.00374847
-0.00109852
-0.00361946
-0.00141956
-0.00144146
0.00258734
-0.00412298
0.00519444
-0.00706429
0.00592542
-0.00962537
0.00525176
-0.0112304
0.00326989
-0.0113208
3.90989e-05
-0.00951083
-0.00396964
-0.00597673
-0.00728257
-0.00199942
-0.00759677
-0.00341898
-0.00187201
0.00445935
-0.00520781
0.00853025
-0.00879404
0.00951166
-0.0119639
0.00842159
-0.0141524
0.00545841
-0.0147131
0.000599777
-0.0130338
-0.00564898
-0.00885967
-0.0114567
-0.00330671
-0.0131497
-0.00672568
-0.00216593
0.00662528
-0.00585054
0.0122149
-0.00973984
0.013401
-0.0132471
0.0119288
-0.0159328
0.00814411
-0.0171935
0.00186045
-0.0161903
-0.00665212
-0.0120642
-0.0155828
-0.00517502
-0.0200389
-0.0119007
-0.0023205
0.00894579
-0.00590172
0.0157961
-0.00945555
0.0169548
-0.0126224
0.0150956
-0.0152691
0.0107908
-0.0170625
0.00365387
-0.0171907
-0.00652391
-0.0142343
-0.0185392
-0.00720511
-0.0270681
-0.0191058
-0.00243584
0.0113816
-0.00535786
0.0187181
-0.00754014
0.0191371
-0.00915611
0.0167116
-0.0106327
0.0122674
-0.0122079
0.00522906
-0.0135208
-0.00521097
-0.0130014
-0.0190586
-0.00810576
-0.0319638
-0.0272115
-0.00299948
0.0143811
-0.00460708
0.0203257
-0.00372764
0.0182576
-0.00201096
0.0149949
-0.000724154
0.0109806
-0.000751989
0.00525686
-0.00262109
-0.00334186
-0.00548971
-0.01619
-0.00588964
-0.0315638
-0.0331012
-0.00535317
0.0197343
-0.00101631
0.0159888
0.00648172
0.0107596
0.0133813
0.00809539
0.0185925
0.00576943
0.0210135
0.00283582
0.0192398
-0.00156811
0.0126048
-0.009555
0.00301702
-0.0219761
-0.0300842
0.0197343
0.0357231
0.0464827
0.0545781
0.0603475
0.0631834
0.0616152
0.0520602
0.0300842
)
;

boundaryField
{
    movingWall
    {
        type            calculated;
        value           uniform 0;
    }
    fixedWalls
    {
        type            calculated;
        value           uniform 0;
    }
    frontAndBack
    {
        type            empty;
    }
}


// ************************************************************************* //
