/*--------------------------------*- C++ -*----------------------------------*\
  =========                 |
  \\      /  F ield         | OpenFOAM: The Open Source CFD Toolbox
   \\    /   O peration     | Website:  https://openfoam.org
    \\  /    A nd           | Version:  13
     \\/     M anipulation  |
\*---------------------------------------------------------------------------*/
FoamFile
{
    format      ascii;
    class       surfaceScalarField;
    location    "10";
    object      phi_0;
}
// * * * * * * * * * * * * * * * * * * * * * * * * * * * * * * * * * * * * * //

dimensions      [0 3 -1 0 0 0 0];

internalField   nonuniform List<scalar> 
760
(
-1.319653933e-05
1.319693473e-05
-7.064466371e-05
5.744796665e-05
-0.000158296044
8.765137575e-05
-0.0002585883176
0.000100292126
-0.0003587812047
0.0001001926954
-0.0004496111323
9.08299046e-05
-0.000524089996
7.447885897e-05
-0.0005766742719
5.258430581e-05
-0.0006030074786
2.6333165e-05
-0.0006001488037
-2.858605364e-06
-0.0005670032822
-3.314536414e-05
-0.0005050878489
-6.191532144e-05
-0.0004190119105
-8.607584606e-05
-0.000316750529
-0.000102261239
-0.0002093871921
-0.0001073631808
-0.0001101691902
-9.92178795e-05
-3.272201713e-05
-7.74470895e-05
1.171334191e-05
-4.443529399e-05
2.060026886e-05
-8.886915467e-06
2.060021071e-05
-6.686313083e-05
8.005983066e-05
-0.0002387184283
0.0002293033968
-0.0004788942983
0.0003278274602
-0.0007492448097
0.0003706427404
-0.00101917231
0.0003701202728
-0.001264760354
0.0003364180555
-0.001467258594
0.0002769771014
-0.001611828506
0.0001971542384
-0.001687117814
0.0001016224037
-0.001685878086
-4.09839487e-06
-0.001605475975
-0.0001135474865
-0.001450041929
-0.0002173494221
-0.001231132397
-0.0003049854835
-0.0009683624517
-0.0003650312792
-0.0006887074741
-0.0003870181791
-0.0004240515135
-0.0003638737729
-0.000206671525
-0.0002948270042
-6.228630438e-05
-0.0001888205482
-1.801173633e-06
-6.93721764e-05
1.879903087e-05
-0.0001189436163
0.0001990035465
-0.0004014263756
0.0005117858899
-0.0007823311401
0.0007087320732
-0.001206889002
0.0007952005653
-0.00163103133
0.0007942626693
-0.002019415943
0.0007248026866
-0.002343580364
0.0006011415031
-0.002580541076
0.0004341150264
-0.002712410355
0.0002334917736
-0.00272715646
1.06479161e-05
-0.002619883132
-0.0002208206048
-0.00239513388
-0.0004420985877
-0.002068468459
-0.0006316508704
-0.001667456796
-0.0007660428363
-0.001230968632
-0.0008235061582
-0.0008059256764
-0.000788916549
-0.0004408230989
-0.000659929513
-0.000176042529
-0.0004536011907
-3.268667055e-05
-0.0002127281447
-1.388759949e-05
-0.0001660963221
0.0003650998999
-0.000552906348
0.0008985956899
-0.00106854184
0.001224367587
-0.001641549644
0.001368208375
-0.00221596589
0.001368678882
-0.002747101283
0.001255937991
-0.00319842499
0.001052465185
-0.003539585194
0.0007752752823
-0.00374585873
0.000439765257
-0.003798886088
6.367524703e-05
-0.003689029913
-0.0003306767859
-0.00341756825
-0.0007135602975
-0.002999986137
-0.001049232993
-0.002467999973
-0.001298028896
-0.001869891328
-0.001421614617
-0.001267561166
-0.001391246615
-0.0007290059181
-0.001198484815
-0.0003161130967
-0.0008664941621
-7.053697977e-05
-0.0004583043282
-8.44245491e-05
-0.0002094658591
0.0005745658219
-0.0006942618959
0.00138339163
-0.001339204349
0.001869310001
-0.002057343879
0.002086347886
-0.002782395591
0.002093730612
-0.003462072762
0.001935615148
-0.004053158597
0.001643551059
-0.004518434713
0.001240551492
-0.004825583669
0.0007469141875
-0.004947926227
0.0001860178006
-0.00486709096
-0.0004115120484
-0.004576407838
-0.001004243455
-0.004085859407
-0.001539781413
-0.003426445259
-0.001957442951
-0.002653112849
-0.002194946906
-0.001843825322
-0.002200534119
-0.001092137608
-0.001950172651
-0.0004919205326
-0.001466711388
-0.0001171962172
-0.0008330286479
-0.000201620801
-0.0002488596325
0.000823425425
-0.0008237455814
0.001958277467
-0.001590163809
0.002635728148
-0.0024482336
0.002944417589
-0.003323541213
0.002969038199
-0.004158187503
0.002770261368
-0.004903807469
0.002389171011
-0.005516991085
0.001853735117
-0.005957229673
0.001187152692
-0.00618728649
0.0004160745671
-0.006176135593
-0.0004226629509
-0.005903461044
-0.001276918001
-0.005366946855
-0.002076295547
-0.004590043704
-0.002734345986
-0.003629439381
-0.003155551153
-0.002578704089
-0.003251269448
-0.001563319214
-0.002965557631
-0.0007224354361
-0.002307595228
-0.0001787054645
-0.001376758585
-0.0003803263479
-0.0002825648328
0.001105990227
-0.0009360077493
0.002611720263
-0.001810803253
0.003510523579
-0.002797667814
0.003931282057
-0.003816863255
0.003988233651
-0.004807325324
0.003760723384
-0.005717602668
0.003299448351
-0.006499488004
0.002635620438
-0.007104607648
0.001792272248
-0.007483967387
0.0007954342512
-0.007590791542
-0.0003158387936
-0.007385656278
-0.001482053222
-0.006846272149
-0.00261567955
-0.005979199112
-0.003601418914
-0.004833784532
-0.004300965694
-0.003513932349
-0.004571121668
-0.002180236755
-0.004299253204
-0.001031914944
-0.003455916965
-0.0002635561804
-0.0021451173
-0.0006438825854
-0.0003081983528
0.001414188483
-0.001023011696
0.00332653341
-0.00198518547
0.004472697248
-0.003079880351
0.005025976795
-0.00422513682
0.005133490101
-0.005359566423
0.004895152914
-0.006431378265
0.004371260184
-0.007390122442
0.003594364579
-0.008181617379
0.002583767142
-0.008746125829
0.001359942702
-0.009020607653
-4.135693006e-05
-0.008942743873
-0.001559916906
-0.008463492096
-0.003094931175
-0.007561306534
-0.004503604381
-0.006263872915
-0.005598399317
-0.004671816368
-0.006163178238
-0.002975516408
-0.005995553094
-0.001446278848
-0.00498515446
-0.0003818879993
-0.003209508208
-0.001025770628
-0.0003232717079
0.001737460114
-0.001076143024
0.00407940454
-0.002095268296
0.005491822445
-0.003263918773
0.006194627184
-0.004500935209
0.006370506558
-0.005747603909
0.006141821584
-0.00695516515
0.005578821472
-0.008074829027
0.004714028442
-0.009050937302
0.003559875419
-0.009817444078
0.00212644954
-0.01029721597
0.0004384150589
-0.01040799766
-0.001449135096
-0.01006915896
-0.003433769756
-0.009220688894
-0.005352074374
-0.00785019506
-0.00696889317
-0.006030906488
-0.007982466806
-0.003962455159
-0.008064004401
-0.001988377985
-0.006959231695
-0.0005452210776
-0.004652665282
-0.001570991745
-0.0003265940162
0.002064054051
-0.001089590141
0.004842400505
-0.002126262253
0.006528494483
-0.003320836267
0.007389201141
-0.004595576338
0.007645246667
-0.005897352001
0.007443597247
-0.007184163779
0.006865633341
-0.008413883681
0.005943748384
-0.00953590047
0.004681892205
-0.01048561135
0.003076160504
-0.01118159931
0.001134403095
-0.01152655319
-0.001104181114
-0.0114127217
-0.003547601211
-0.01073619625
-0.006028599848
-0.009426386904
-0.008278702539
-0.007496280451
-0.00991257322
-0.005113932463
-0.01044635248
-0.002669673458
-0.009403490885
-0.0007658585773
-0.006556480296
-0.002336850273
-0.0003200915395
0.002384145495
-0.00106483736
0.005587146165
-0.002073873925
0.007537530993
-0.003233801345
0.008549128553
-0.004472572095
0.008884017484
-0.005745508555
0.008716533748
-0.007021254123
0.00814137899
-0.008269906857
0.007192401219
-0.009453797465
0.005865782799
-0.01052038069
0.00414274378
-0.01139660717
0.002010629504
-0.01198439765
-0.0005163906117
-0.01216142326
-0.003370575673
-0.01178468932
-0.006405333906
-0.01071562147
-0.009347770439
-0.008873660861
-0.01175453376
-0.006336301072
-0.01298371238
-0.003476394503
-0.01226339759
-0.001055083217
-0.008977791576
-0.003391933369
-0.0003111924329
0.00269533788
-0.001016042791
0.006291996384
-0.001952571679
0.008474059861
-0.003009503891
0.009606060804
-0.004123152764
0.009997666436
-0.005260794977
0.009854176022
-0.006405842573
0.009286426525
-0.007546026486
0.008332585198
-0.008664258404
0.006984014623
-0.009730868096
0.005209353516
-0.01069588131
0.002975642583
-0.01147879704
0.0002665249799
-0.01196409098
-0.002885281821
-0.01198860387
-0.006380821047
-0.01135341517
-0.009982959074
-0.00986499327
-0.01324295555
-0.007447195074
-0.01540151062
-0.004350246734
-0.01536034595
-0.001419087989
-0.01190895025
-0.004811021388
-0.0003162015878
0.003011539454
-0.0009761554945
0.006951950201
-0.001803446827
0.009301351159
-0.002687774506
0.01049038848
-0.003578839548
0.0108887315
-0.00446154877
0.01073688533
-0.00533909987
0.01016397747
-0.006221613257
0.009215098567
-0.007118154989
0.007880556288
-0.008029766639
0.006120965222
-0.008941066655
0.003886942734
-0.009810100713
0.001135559148
-0.01054798728
-0.002147395197
-0.01100621106
-0.00592259721
-0.01095623664
-0.01003293351
-0.0101021278
-0.0140970645
-0.008172324391
-0.01733131413
-0.005167793558
-0.01836487683
-0.001851202431
-0.01522554131
-0.006662223866
-0.0003654898389
0.003377029254
-0.001003623454
0.007590083764
-0.001699434816
0.009997162446
-0.002344663303
0.01113561685
-0.002913355661
0.01145742379
-0.003418156348
0.01124168608
-0.003888992231
0.01063481337
-0.004362510736
0.009688617058
-0.004876427763
0.00839447347
-0.005464983023
0.006709520476
-0.006152498911
0.004574458633
-0.006943192838
0.001926253046
-0.00780183066
-0.001288757392
-0.008627714616
-0.005096713213
-0.009214738935
-0.00944590924
-0.00921552408
-0.01409627948
-0.008171104305
-0.01837573376
-0.005727327437
-0.02080865368
-0.002319859682
-0.01863300916
-0.008982083471
-0.0005125612898
0.00388959045
-0.00118848492
0.00826600731
-0.001741855733
0.01055053323
-0.002078494971
0.01147225601
-0.00221954079
0.01159846963
-0.002222093461
0.0112442387
-0.002152093949
0.0105648139
-0.002076217706
0.009612740751
-0.002060079559
0.008378335361
-0.002168102452
0.006817543418
-0.002460944347
0.004867300609
-0.002989333322
0.002454641991
-0.00378074553
-0.0004973452043
-0.004810960847
-0.004066497819
-0.005955171548
-0.008301698639
-0.006901081274
-0.01315036979
-0.007078830195
-0.01819798478
-0.005746516279
-0.02214096742
-0.002746512458
-0.02163301289
-0.01172859588
-0.0008433979906
0.004732988348
-0.001644190722
0.009066799969
-0.002023624062
0.01092996667
-0.00194600785
0.0113946398
-0.001522934154
0.01117539589
-0.0008803999352
0.01060170456
-0.0001311776069
0.009815591547
0.0006270393595
0.008854523847
0.001303639555
0.007701735205
0.001810672429
0.006310510523
0.002059635683
0.004618337257
0.001961808076
0.002552469403
0.001431378361
3.308453406e-05
0.000409791444
-0.003044910721
-0.001100449674
-0.006791457703
-0.002922326487
-0.01132849273
-0.004528184239
-0.01659212708
-0.00484768298
-0.02182146878
-0.002955368149
-0.02352532767
-0.01468396411
-0.001475771218
0.006208759573
-0.002413735878
0.01000476465
-0.002438899734
0.01095513055
-0.001702500387
0.01065824042
-0.000480102944
0.009952998569
0.001007868476
0.009113732983
0.002598718813
0.00822474126
0.004167978842
0.007285263646
0.005609896907
0.006259817077
0.006823248745
0.005097158775
0.007703066081
0.003738520033
0.008135542334
0.002119993252
0.007994497424
0.0001741296883
0.007152877392
-0.002203290537
0.005491328899
-0.005129909313
0.002999106076
-0.008836269767
3.064554989e-05
-0.01362366664
-0.00247865489
-0.01931216821
-0.002612795189
-0.02339118722
-0.0172967593
-0.002369594113
0.008578353819
-0.002982453777
0.0106176243
-0.001964996018
0.00993767291
1.016581127e-05
0.008683078516
0.002436772509
0.007526391913
0.005018086771
0.006532418645
0.007579908632
0.005662919371
0.01000510673
0.004860065464
0.01219862115
0.00406630262
0.0140671738
0.00322860616
0.0155080505
0.002297643372
0.0164019258
0.001226117771
0.01659660816
-2.055275585e-05
0.01594506142
-0.001551743749
0.01423931227
-0.003424160268
0.01128097087
-0.005877928133
0.007014258534
-0.009356954434
0.002176177995
-0.01447408764
-0.001038381292
-0.02017662793
-0.01833514048
-0.002147616112
0.01072597
-7.204254564e-05
0.008542050724
0.003731188091
0.006134442456
0.007691543583
0.004722722785
0.01151219064
0.003705744927
0.01507056075
0.002974048542
0.01831136596
0.002422114192
0.02120299455
0.001968436954
0.02370979642
0.001559500811
0.02577994833
0.001158454329
0.02733945249
0.0007381393494
0.02828622512
0.0002793451456
0.02851462403
-0.0002489513332
0.02784146398
-0.0008785837269
0.02606626816
-0.001648964587
0.0228849518
-0.002696611813
0.0178894285
-0.004361431125
0.01075534307
-0.007340002249
0.002907178014
-0.01232846299
-0.01542796229
0.01072597005
0.01926802086
0.02540246324
0.03012518602
0.03383093096
0.03680497948
0.03922709364
0.04119553055
0.04275503129
0.04391348568
0.04465162496
0.0449309701
0.04468201876
0.04380343502
0.04215447051
0.03945785863
0.03509642767
0.02775642535
0.01542796234
)
;

boundaryField
{
    movingWall
    {
        type            calculated;
        value           uniform 0;
    }
    fixedWalls
    {
        type            calculated;
        value           uniform 0;
    }
    frontAndBack
    {
        type            empty;
    }
}


// ************************************************************************* //
