/*--------------------------------*- C++ -*----------------------------------*\
  =========                 |
  \\      /  F ield         | OpenFOAM: The Open Source CFD Toolbox
   \\    /   O peration     | Website:  https://openfoam.org
    \\  /    A nd           | Version:  13
     \\/     M anipulation  |
\*---------------------------------------------------------------------------*/
FoamFile
{
    format      ascii;
    class       volVectorField;
    location    "10";
    object      U;
}
// * * * * * * * * * * * * * * * * * * * * * * * * * * * * * * * * * * * * * //

dimensions      [0 1 -1 0 0 0 0];

internalField   nonuniform List<vector> 
100
(
(-0.000476151 0.000438829 0)
(-0.00574191 0.00161922 0)
(-0.0144172 0.00226096 0)
(-0.0240047 0.00237109 0)
(-0.0317556 0.00189162 0)
(-0.0349499 0.000599524 0)
(-0.0312758 -0.00131065 0)
(-0.0208317 -0.00286378 0)
(-0.00815743 -0.00253085 0)
(-0.000471574 -0.000355973 0)
(-0.00221883 0.00622905 0)
(-0.0173376 0.01479 0)
(-0.0384228 0.0183369 0)
(-0.060028 0.0171558 0)
(-0.0764672 0.0112061 0)
(-0.0825503 0.000446754 0)
(-0.0743178 -0.012803 0)
(-0.0519658 -0.0225491 0)
(-0.023319 -0.0208845 0)
(-0.00237107 -0.00717009 0)
(-0.00378252 0.0182931 0)
(-0.0273129 0.0380329 0)
(-0.0577756 0.0443199 0)
(-0.0879073 0.0397948 0)
(-0.110779 0.0248816 0)
(-0.120221 -5.92676e-05 0)
(-0.111062 -0.0303286 0)
(-0.08201 -0.0539962 0)
(-0.0405935 -0.0535913 0)
(-0.00472231 -0.0222343 0)
(-0.00493779 0.0355125 0)
(-0.0347672 0.0692803 0)
(-0.0719905 0.0781186 0)
(-0.108558 0.0691862 0)
(-0.137524 0.0438063 0)
(-0.152494 0.00225848 0)
(-0.146754 -0.0496288 0)
(-0.115885 -0.094578 0)
(-0.0641359 -0.102205 0)
(-0.00868339 -0.0481761 0)
(-0.00563928 0.0562527 0)
(-0.0390781 0.105486 0)
(-0.0792972 0.116643 0)
(-0.118745 0.103321 0)
(-0.151758 0.068087 0)
(-0.172894 0.0101199 0)
(-0.17443 -0.0659185 0)
(-0.148376 -0.140102 0)
(-0.0932924 -0.167826 0)
(-0.0152388 -0.0901433 0)
(-0.00596453 0.0787852 0)
(-0.0398504 0.142675 0)
(-0.0770053 0.155101 0)
(-0.112171 0.137885 0)
(-0.142722 0.095267 0)
(-0.166175 0.0243058 0)
(-0.176034 -0.0742734 0)
(-0.162196 -0.182988 0)
(-0.116793 -0.246714 0)
(-0.0237668 -0.155782 0)
(-0.00642256 0.102407 0)
(-0.038594 0.175748 0)
(-0.0640996 0.185594 0)
(-0.0831855 0.164507 0)
(-0.098978 0.118574 0)
(-0.114767 0.0424799 0)
(-0.128848 -0.0692594 0)
(-0.132076 -0.208681 0)
(-0.112376 -0.321676 0)
(-0.0298887 -0.248688 0)
(-0.00970824 0.133489 0)
(-0.0417773 0.199896 0)
(-0.0431886 0.196679 0)
(-0.0280348 0.169395 0)
(-0.0115355 0.125554 0)
(-0.00400246 0.0573159 0)
(-0.0120995 -0.0467971 0)
(-0.0316997 -0.194528 0)
(-0.0531223 -0.351134 0)
(-0.0184353 -0.337677 0)
(-0.0342333 0.18871 0)
(-0.042947 0.210144 0)
(0.0253281 0.167737 0)
(0.0993607 0.134428 0)
(0.160982 0.100686 0)
(0.201365 0.0557442 0)
(0.207515 -0.0120722 0)
(0.176628 -0.122682 0)
(0.100099 -0.274605 0)
(0.0561925 -0.322944 0)
(0.223974 0.105059 0)
(0.283394 0.0973814 0)
(0.403141 0.0638334 0)
(0.504814 0.0439202 0)
(0.576397 0.0309762 0)
(0.620806 0.0195696 0)
(0.626092 0.00465689 0)
(0.588014 -0.0161781 0)
(0.459759 -0.059453 0)
(0.322237 -0.110948 0)
)
;

boundaryField
{
    movingWall
    {
        type            fixedValue;
        value           uniform (1 0 0);
    }
    fixedWalls
    {
        type            fixedValue;
        value           uniform (0 0 0);
    }
    frontAndBack
    {
        type            empty;
    }
}


// ************************************************************************* //
