/*--------------------------------*- C++ -*----------------------------------*\
  =========                 |
  \\      /  F ield         | OpenFOAM: The Open Source CFD Toolbox
   \\    /   O peration     | Website:  https://openfoam.org
    \\  /    A nd           | Version:  13
     \\/     M anipulation  |
\*---------------------------------------------------------------------------*/
FoamFile
{
    format      ascii;
    class       volVectorField;
    location    "10";
    object      U_0;
}
// * * * * * * * * * * * * * * * * * * * * * * * * * * * * * * * * * * * * * //

dimensions      [0 1 -1 0 0 0 0];

internalField   nonuniform List<vector> 
400
(
(9.23410102e-05 -9.406768156e-05 0)
(-0.0002482244016 8.267469293e-05 0)
(-0.001370605348 0.0002587119975 0)
(-0.003088990887 0.0003723548559 0)
(-0.005136859963 0.0004296543882 0)
(-0.007283651508 0.0004433237751 0)
(-0.009346177728 0.0004216515047 0)
(-0.01116953729 0.000367365527 0)
(-0.01261150777 0.0002800229354 0)
(-0.01353765866 0.0001596118386 0)
(-0.01382879707 1.021761312e-05 0)
(-0.01339981486 -0.0001571663969 0)
(-0.01222630692 -0.0003232852251 0)
(-0.01037232391 -0.0004616289241 0)
(-0.008010083621 -0.0005424416744 0)
(-0.005421340663 -0.0005396843049 0)
(-0.002971965097 -0.0004397066055 0)
(-0.001054387994 -0.0002499505629 0)
(1.724673184e-05 -1.058478591e-05 0)
(0.0001643118556 0.0001608911351 0)
(-8.808467179e-05 0.0002437612061 0)
(-0.001637861031 0.001579307665 0)
(-0.004869742944 0.00288620981 0)
(-0.00933548832 0.003743134305 0)
(-0.01447813394 0.004141874404 0)
(-0.01979749518 0.004150980177 0)
(-0.02486491252 0.003832577362 0)
(-0.02930313306 0.003222902666 0)
(-0.03276648189 0.002341512648 0)
(-0.03493844996 0.001211448542 0)
(-0.03555164537 -0.0001183532386 0)
(-0.03442881351 -0.001554754946 0)
(-0.03153792312 -0.002951699271 0)
(-0.02704748291 -0.004116954864 0)
(-0.02136270789 -0.004838154502 0)
(-0.01512127111 -0.004928819594 0)
(-0.009130420471 -0.00428860384 0)
(-0.004232267513 -0.002970344009 0)
(-0.001103139988 -0.001257124449 0)
(4.241609502e-05 5.562607058e-05 0)
(-0.0002970643492 0.001441246247 0)
(-0.003238583272 0.004897392345 0)
(-0.008503177741 0.007874229998 0)
(-0.0153552275 0.009800037445 0)
(-0.02302180258 0.01066518211 0)
(-0.03083599154 0.01059403885 0)
(-0.03821554309 0.00970867933 0)
(-0.04463937194 0.008091301793 0)
(-0.04962931093 0.005799933724 0)
(-0.05275216316 0.002908559426 0)
(-0.05364663244 -0.0004468343789 0)
(-0.05207473165 -0.004030407528 0)
(-0.04798986903 -0.007490100388 0)
(-0.04160706479 -0.01037423489 0)
(-0.03345345097 -0.01219167823 0)
(-0.02437123752 -0.01251734233 0)
(-0.01544672896 -0.01113124666 0)
(-0.007843766626 -0.008165486119 0)
(-0.002569416378 -0.004233166683 0)
(-0.0001239092631 -0.0007959722357 0)
(-0.0004787867183 0.003461818561 0)
(-0.004699709016 0.009950661905 0)
(-0.01185837009 0.01502687916 0)
(-0.02087437395 0.01820130489 0)
(-0.03076503007 0.019544607 0)
(-0.04073647137 0.0192697833 0)
(-0.05010859049 0.01757386373 0)
(-0.05827144027 0.01459433433 0)
(-0.06465956962 0.01043623093 0)
(-0.06875221888 0.005235144585 0)
(-0.0701014431 -0.0007699772419 0)
(-0.06838878986 -0.007175615372 0)
(-0.06350503949 -0.01338414181 0)
(-0.05564058692 -0.01862612784 0)
(-0.04536443417 -0.02205357056 0)
(-0.03365765168 -0.02291312027 0)
(-0.02186112068 -0.02078432834 0)
(-0.01149776611 -0.01583214428 0)
(-0.003988177529 -0.008994268659 0)
(-0.0002679577146 -0.002387422861 0)
(-0.0006346949203 0.006201842237 0)
(-0.006006819772 0.01657231605 0)
(-0.01491994011 0.02413335835 0)
(-0.02594412806 0.02869044445 0)
(-0.03789411167 0.03050029227 0)
(-0.04987139916 0.02991635727 0)
(-0.06113392697 0.02723125734 0)
(-0.07102049825 0.02264143709 0)
(-0.07890706703 0.01629349648 0)
(-0.08419634277 0.008374773319 0)
(-0.08634030915 -0.0007822974816 0)
(-0.08489819 -0.01060833263 0)
(-0.07962886334 -0.02024363194 0)
(-0.07061071873 -0.02855288054 0)
(-0.05836960719 -0.03424126338 0)
(-0.04397426979 -0.03609798264 0)
(-0.02903780586 -0.03335959131 0)
(-0.01554785772 -0.02611695222 0)
(-0.005491737908 -0.01560811888 0)
(-0.0004092462564 -0.004683399019 0)
(-0.0007714988778 0.009581384615 0)
(-0.007202150052 0.02463093691 0)
(-0.0177549228 0.03505652004 0)
(-0.03067592458 0.04113555038 0)
(-0.04459152718 0.04342026274 0)
(-0.05852087027 0.0424680581 0)
(-0.07168984017 0.03869358448 0)
(-0.08341643032 0.03235216496 0)
(-0.09304018538 0.02361336719 0)
(-0.09989263974 0.01268517584 0)
(-0.1033065569 -4.323837595e-05 0)
(-0.1026695005 -0.01386785838 0)
(-0.09752747305 -0.02767514726 0)
(-0.08774074788 -0.03992533927 0)
(-0.07368057998 -0.04876787103 0)
(-0.05642418145 -0.05234718325 0)
(-0.03786143666 -0.04932152726 0)
(-0.02057492161 -0.03950895806 0)
(-0.007347905163 -0.02439934838 0)
(-0.0005832082667 -0.007764089772 0)
(-0.0008940833048 0.01355443083 0)
(-0.00832782501 0.03403405806 0)
(-0.02042795276 0.04769830138 0)
(-0.03515497785 0.0554528987 0)
(-0.05096274656 0.05825528303 0)
(-0.06681411574 0.0569360725 0)
(-0.08193405749 0.05206143168 0)
(-0.09565124785 0.04394187274 0)
(-0.1072941308 0.03273982049 0)
(-0.1161348785 0.01863323146 0)
(-0.1213769647 0.00200415491 0)
(-0.1221956069 -0.01637293733 0)
(-0.1178446764 -0.03517243461 0)
(-0.10784562 -0.05243548227 0)
(-0.09226405915 -0.06564220531 0)
(-0.07204171325 -0.07204889859 0)
(-0.04928116244 -0.06938098542 0)
(-0.02726735119 -0.05683463912 0)
(-0.009890598224 -0.03601548656 0)
(-0.0008322028875 -0.01187262753 0)
(-0.001004682724 0.01809747356 0)
(-0.009410796076 0.04471320992 0)
(-0.02297081502 0.06197449044 0)
(-0.03940069925 0.07156050856 0)
(-0.05699333866 0.07494877769 0)
(-0.074684253 0.07331831125 0)
(-0.09173231753 0.06741942067 0)
(-0.1075141426 0.05761261452 0)
(-0.1213828171 0.04401571946 0)
(-0.132580277 0.02671125981 0)
(-0.1401953324 0.005986077273 0)
(-0.1431787007 -0.01741503325 0)
(-0.1404368896 -0.04204229743 0)
(-0.1310359503 -0.06555398631 0)
(-0.1145489898 -0.0846794595 0)
(-0.09154832147 -0.09551672452 0)
(-0.06415336944 -0.09437171486 0)
(-0.03635458868 -0.07923249325 0)
(-0.01351053528 -0.05146454155 0)
(-0.00120738613 -0.01743823066 0)
(-0.001104577828 0.02319976753 0)
(-0.01046619197 0.05660441926 0)
(-0.02538164303 0.0777839653 0)
(-0.04335977253 0.08932961372 0)
(-0.06253536038 0.09336683478 0)
(-0.08184627859 0.09150769318 0)
(-0.1006236087 0.08472508264 0)
(-0.1183363114 0.07342733509 0)
(-0.1344122 0.05765031041 0)
(-0.1481176328 0.03731052267 0)
(-0.1584806197 0.01249568805 0)
(-0.1642659525 -0.0162119406 0)
(-0.1640333676 -0.04738223126 0)
(-0.1563183153 -0.07841103942 0)
(-0.1400089241 -0.1052860595 0)
(-0.114985969 -0.1227210409 0)
(-0.08299981612 -0.1250161599 0)
(-0.04851718154 -0.1080408304 0)
(-0.01866122719 -0.07212440765 0)
(-0.001775099729 -0.02510692539 0)
(-0.001198070694 0.02886041147 0)
(-0.01151310788 0.06963506822 0)
(-0.02764653984 0.09497941828 0)
(-0.04692762703 0.108534315 0)
(-0.06732489169 0.1132241816 0)
(-0.08780833952 0.111193317 0)
(-0.1078223049 0.1036850437 0)
(-0.1269786853 0.09116240607 0)
(-0.1448443284 0.07355247711 0)
(-0.1607934872 0.0505448108 0)
(-0.173895529 0.02192586126 0)
(-0.1828367692 -0.01203891228 0)
(-0.185922209 -0.05013334395 0)
(-0.1811751831 -0.08972694984 0)
(-0.1666624856 -0.1262346648 0)
(-0.141212987 -0.1529240166 0)
(-0.1056158809 -0.1615242325 0)
(-0.06420334184 -0.1445309832 0)
(-0.02585051103 -0.09969577098 0)
(-0.0026268719 -0.03578255631 0)
(-0.001299711903 0.03509837947 0)
(-0.01260505195 0.08372545338 0)
(-0.02978423156 0.1133448751 0)
(-0.04999790753 0.1288014065 0)
(-0.07103181519 0.1340072942 0)
(-0.09192262398 0.1317578004 0)
(-0.1122735833 0.1236260654 0)
(-0.1318946643 0.1101510132 0)
(-0.1505661758 0.09114603859 0)
(-0.1678769304 0.0660411679 0)
(-0.183087895 0.0342483888 0)
(-0.1949842168 -0.004417113789 0)
(-0.2018254648 -0.04923769069 0)
(-0.2012901838 -0.09785104104 0)
(-0.1906275693 -0.1455033714 0)
(-0.1673304575 -0.1842718107 0)
(-0.1305066413 -0.2030085196 0)
(-0.08327581396 -0.1893956632 0)
(-0.03557741162 -0.1360251184 0)
(-0.003892258207 -0.05067115477 0)
(-0.001446981045 0.04198616294 0)
(-0.01388117386 0.09881584121 0)
(-0.03191635211 0.1325853927 0)
(-0.05253683745 0.1495634378 0)
(-0.07333501877 0.1549002489 0)
(-0.09346985576 0.1521829175 0)
(-0.1127627455 0.1433821518 0)
(-0.1312818885 0.1291484278 0)
(-0.1490977362 0.1092056857 0)
(-0.1661261251 0.08273555263 0)
(-0.1819821015 0.04875121983 0)
(-0.1958380025 0.006514248146 0)
(-0.206182204 -0.04394853576 0)
(-0.2106486625 -0.1009939051 0)
(-0.2059656271 -0.1603182605 0)
(-0.1882328502 -0.2135056549 0)
(-0.1542336562 -0.2468116505 0)
(-0.1044344846 -0.2419335036 0)
(-0.04814256688 -0.1826707734 0)
(-0.005751500315 -0.07130531352 0)
(-0.001722967113 0.04972511739 0)
(-0.01564854521 0.1149299007 0)
(-0.03436337487 0.1523273073 0)
(-0.05466685453 0.1700103302 0)
(-0.07399376707 0.1747145316 0)
(-0.09173952897 0.1709760811 0)
(-0.108037147 0.1612244851 0)
(-0.1232837392 0.1462613782 0)
(-0.1379109122 0.1257712542 0)
(-0.1522614082 0.09874846811 0)
(-0.1664673887 0.06385627261 0)
(-0.1802858749 0.01978869074 0)
(-0.1928269066 -0.03422737161 0)
(-0.2021949189 -0.09770539939 0)
(-0.2050886284 -0.1675591034 0)
(-0.1965919341 -0.2360488512 0)
(-0.1709219061 -0.2880134021 0)
(-0.1244685084 -0.2990079304 0)
(-0.06322152397 -0.2400412487 0)
(-0.008437043907 -0.09948383043 0)
(-0.002297235731 0.05879010692 0)
(-0.01850950257 0.132279253 0)
(-0.037750964 0.1721078326 0)
(-0.05670630052 0.1890137574 0)
(-0.07282868633 0.1918067141 0)
(-0.08599260891 0.186116758 0)
(-0.096803509 0.1748505465 0)
(-0.106077668 0.1589766229 0)
(-0.1146633704 0.1381948023 0)
(-0.1233819975 0.1114093937 0)
(-0.1329624561 0.07705932744 0)
(-0.1439143258 0.03339054503 0)
(-0.1562669738 -0.02120020559 0)
(-0.1691100884 -0.08757756515 0)
(-0.1798941743 -0.1646081893 0)
(-0.1835751925 -0.2467150074 0)
(-0.1723046573 -0.3195233303 0)
(-0.1375970522 -0.3541250746 0)
(-0.07909381277 -0.3059970012 0)
(-0.01218499087 -0.1369782085 0)
(-0.003483234693 0.07017406506 0)
(-0.0235293355 0.1513844233 0)
(-0.0430424637 0.1912792753 0)
(-0.05898912408 0.2049441485 0)
(-0.06936299073 0.2039196792 0)
(-0.07500251517 0.1949777597 0)
(-0.07724921493 0.18140678 0)
(-0.07745131027 0.1642852364 0)
(-0.07690250059 0.14334635 0)
(-0.07688364111 0.1174963823 0)
(-0.07868625544 0.08511319306 0)
(-0.08357143409 0.04420988253 0)
(-0.09259957461 -0.007419474924 0)
(-0.1062021327 -0.07191446757 0)
(-0.123387111 -0.1504656406 0)
(-0.1403210589 -0.2410545051 0)
(-0.1485765094 -0.3330815608 0)
(-0.135293328 -0.3972180942 0)
(-0.09153732296 -0.3741429339 0)
(-0.01701236752 -0.1847794619 0)
(-0.005739654773 0.08584355892 0)
(-0.03228712322 0.1731163373 0)
(-0.05111374673 0.2085676855 0)
(-0.0608436362 0.2151209176 0)
(-0.06135917628 0.2077433178 0)
(-0.05534786359 0.1940739668 0)
(-0.04524195438 0.177445256 0)
(-0.03301259101 0.1588454006 0)
(-0.02036202388 0.1379689381 0)
(-0.008911411522 0.1137567048 0)
(-0.0003444305665 0.0846694552 0)
(0.003519207084 0.04874470644 0)
(0.0007526730608 0.003565906301 0)
(-0.01038366409 -0.05379111001 0)
(-0.03091243946 -0.1265540771 0)
(-0.05960352791 -0.2169166619 0)
(-0.08985897387 -0.3210825053 0)
(-0.1067842248 -0.4156137352 0)
(-0.09263294363 -0.4326803774 0)
(-0.02209451695 -0.2419459313 0)
(-0.009597030576 0.1102389663 0)
(-0.0461015361 0.1984115537 0)
(-0.060269892 0.2206559723 0)
(-0.05648412979 0.2144152309 0)
(-0.0399286257 0.1979414495 0)
(-0.01636181963 0.1785642458 0)
(0.01055695532 0.1588469362 0)
(0.03839693786 0.1392613213 0)
(0.06529460276 0.1192603772 0)
(0.08958731943 0.09776488789 0)
(0.1095097038 0.07341160528 0)
(0.1230382865 0.04446558149 0)
(0.1278018317 0.008704495626 0)
(0.1212246615 -0.03684827981 0)
(0.1005402902 -0.09638006864 0)
(0.06367282074 -0.1754263187 0)
(0.0126926109 -0.2786700326 0)
(-0.03986504193 -0.3959605215 0)
(-0.07021238023 -0.4644395283 0)
(-0.02473423805 -0.3044831147 0)
(-0.01683684661 0.153688666 0)
(-0.06142885835 0.2254821391 0)
(-0.05476984925 0.2173445267 0)
(-0.02086312101 0.1920156962 0)
(0.02395500493 0.1658830708 0)
(0.07158805539 0.1423006255 0)
(0.1184835587 0.121633517 0)
(0.1627497232 0.1032921561 0)
(0.2030999771 0.08625948231 0)
(0.2384516525 0.06934262945 0)
(0.267391068 0.05144717 0)
(0.2881356644 0.03130826556 0)
(0.2983972102 0.00713432413 0)
(0.2954696848 -0.0234278942 0)
(0.2758869517 -0.06400593591 0)
(0.2347960419 -0.1210620021 0)
(0.1681479085 -0.2060295121 0)
(0.07971573898 -0.3272577966 0)
(-0.008768200444 -0.446456958 0)
(-0.01758755108 -0.3575330909 0)
(-0.02296909334 0.2096516539 0)
(-0.03679747942 0.2330783073 0)
(0.03910440936 0.1778811467 0)
(0.125713689 0.137019487 0)
(0.2042366311 0.1076803621 0)
(0.2734154474 0.08543551043 0)
(0.3339847837 0.06839010578 0)
(0.3865438906 0.05498603916 0)
(0.4314384271 0.04384166468 0)
(0.4687262759 0.03385783313 0)
(0.4975999391 0.02426775804 0)
(0.5179992695 0.0139443191 0)
(0.5281254932 0.001874318042 0)
(0.5255136609 -0.01330958031 0)
(0.5060015248 -0.03421612512 0)
(0.464307759 -0.06434489961 0)
(0.3915800077 -0.1152973733 0)
(0.2764335863 -0.2079389264 0)
(0.1230792918 -0.339243763 0)
(0.03513575122 -0.3368429223 0)
(0.2423686399 0.1094579381 0)
(0.315137285 0.0975058532 0)
(0.4473458179 0.05681559691 0)
(0.5527980774 0.0345574378 0)
(0.6267233193 0.02280659295 0)
(0.6809475025 0.01564481392 0)
(0.7226073084 0.0109882697 0)
(0.7552455569 0.007873578357 0)
(0.7808843592 0.005680103524 0)
(0.8006994973 0.003997156143 0)
(0.8151687771 0.002498924227 0)
(0.8241942841 0.0009384744774 0)
(0.8270500066 -0.0008372907165 0)
(0.8224107752 -0.002964855124 0)
(0.8078444293 -0.005780070552 0)
(0.7789829323 -0.01008297866 0)
(0.7265785553 -0.01802452996 0)
(0.6326808805 -0.03452914639 0)
(0.4604489856 -0.08360923233 0)
(0.3035963514 -0.1251671013 0)
)
;

boundaryField
{
    movingWall
    {
        type            calculated;
        value           uniform (1 0 0);
    }
    fixedWalls
    {
        type            calculated;
        value           uniform (0 0 0);
    }
    frontAndBack
    {
        type            empty;
    }
}


// ************************************************************************* //
