/*--------------------------------*- C++ -*----------------------------------*\
  =========                 |
  \\      /  F ield         | OpenFOAM: The Open Source CFD Toolbox
   \\    /   O peration     | Website:  https://openfoam.org
    \\  /    A nd           | Version:  13
     \\/     M anipulation  |
\*---------------------------------------------------------------------------*/
FoamFile
{
    format      ascii;
    class       vectorField;
    location    "10";
    object      U_all;
}
// * * * * * * * * * * * * * * * * * * * * * * * * * * * * * * * * * * * * * //


400
(
(9.857139971e-05 -0.0001003648219 0)
(-0.0002377884786 8.047884985e-05 0)
(-0.001379066496 0.0002624745611 0)
(-0.003139209289 0.0003796977503 0)
(-0.005247494317 0.0004387260457 0)
(-0.00746791214 0.0004532638551 0)
(-0.009610880911 0.0004318775659 0)
(-0.0115132775 0.0003770218734 0)
(-0.0130224954 0.0002877159266 0)
(-0.01399226889 0.0001634989139 0)
(-0.01429210976 8.442839311e-06 0)
(-0.01382928217 -0.000165777912 0)
(-0.01257890319 -0.0003384129825 0)
(-0.01061434336 -0.0004809500357 0)
(-0.008127301888 -0.0005617342358 0)
(-0.005425869737 -0.0005537651242 0)
(-0.002901833472 -0.0004440483077 0)
(-0.000963017147 -0.0002424644195 0)
(8.188957257e-05 6.076694355e-06 0)
(0.0001800193267 0.0001762541952 0)
(-8.650241513e-05 0.0002334491848 0)
(-0.001666078642 0.001601756233 0)
(-0.004987975484 0.002953446884 0)
(-0.009595047611 0.003850008396 0)
(-0.01491924294 0.004278651445 0)
(-0.02044650412 0.004306338444 0)
(-0.02573183922 0.003992340375 0)
(-0.03037710649 0.00336899572 0)
(-0.03401151329 0.002452438585 0)
(-0.03629159048 0.001265008624 0)
(-0.03692584245 -0.0001401581186 0)
(-0.03572208739 -0.00165956244 0)
(-0.03264902584 -0.003131074607 0)
(-0.02789596584 -0.004343694695 0)
(-0.02190893986 -0.005069124645 0)
(-0.01537999809 -0.005114740001 0)
(-0.00917074331 -0.004389789543 0)
(-0.004159788409 -0.002974133079 0)
(-0.001022466046 -0.001192208046 0)
(6.342419207e-05 0.0001218823375 0)
(-0.0003043859559 0.001457099702 0)
(-0.003333077774 0.00501672239 0)
(-0.008776632131 0.008103613861 0)
(-0.01587867805 0.01012227925 0)
(-0.02384786763 0.01105499189 0)
(-0.03199751014 0.01102154013 0)
(-0.03972176459 0.01013678432 0)
(-0.04646911223 0.008474046531 0)
(-0.05172540422 0.006084622146 0)
(-0.05501966611 0.003042785347 0)
(-0.05595730068 -0.0005038768465 0)
(-0.05427936595 -0.004294543777 0)
(-0.04993856778 -0.007940452941 0)
(-0.04317514672 -0.01094803775 0)
(-0.03456820773 -0.01279051692 0)
(-0.02503218144 -0.01302774661 0)
(-0.01573016897 -0.01145799957 0)
(-0.007885315676 -0.008269707479 0)
(-0.00252073223 -0.004163667489 0)
(-0.0001041683859 -0.000682988151 0)
(-0.0004949743352 0.0035429197 0)
(-0.00487125584 0.01024918814 0)
(-0.01230598083 0.0155239735 0)
(-0.02168694784 0.01885929543 0)
(-0.03200342963 0.0203171327 0)
(-0.04243737959 0.02010220264 0)
(-0.05228047907 0.01839821872 0)
(-0.06088601012 0.01532725534 0)
(-0.06764481798 0.01098356548 0)
(-0.0719897817 0.005504356179 0)
(-0.07343071231 -0.000850939799 0)
(-0.0716195092 -0.007636473626 0)
(-0.06643886968 -0.01419302349 0)
(-0.05810037814 -0.01968007074 0)
(-0.04722744967 -0.02318647097 0)
(-0.03488562757 -0.02392683833 0)
(-0.02251601178 -0.02150248961 0)
(-0.01173239317 -0.01616574147 0)
(-0.00400484222 -0.00899779885 0)
(-0.0002495073057 -0.002249604055 0)
(-0.0006587677766 0.006390543213 0)
(-0.006254186528 0.01713618273 0)
(-0.01553660026 0.02500566621 0)
(-0.02703590214 0.02980244603 0)
(-0.03952924439 0.0317794896 0)
(-0.05209157336 0.03127973534 0)
(-0.06395074904 0.02857578825 0)
(-0.07440553574 0.02384083292 0)
(-0.08278309354 0.01720516371 0)
(-0.08843247293 0.008857575515 0)
(-0.09075341705 -0.0008415312638 0)
(-0.08926267909 -0.01126390547 0)
(-0.08369639628 -0.02146241085 0)
(-0.07414062799 -0.03019702406 0)
(-0.06116861082 -0.0360730782 0)
(-0.04593995708 -0.03781732483 0)
(-0.03019332927 -0.03467801827 0)
(-0.0160504392 -0.02685793815 0)
(-0.00560192721 -0.01580085724 0)
(-0.000390883521 -0.0045578999 0)
(-0.000801855919 0.009916774279 0)
(-0.007512494115 0.02553763668 0)
(-0.01851044464 0.0364005586 0)
(-0.03199726188 0.04280830028 0)
(-0.04655503214 0.04532009725 0)
(-0.06117667054 0.04448259461 0)
(-0.07505908346 0.04068348183 0)
(-0.08748009825 0.03414550203 0)
(-0.09772815126 0.02501398006 0)
(-0.1050754217 0.01349484349 0)
(-0.1087919501 8.615850516e-06 0)
(-0.1082066547 -0.01466927136 0)
(-0.1028214141 -0.02931390504 0)
(-0.09248070326 -0.04224427963 0)
(-0.07758431257 -0.05146266122 0)
(-0.05929636995 -0.05500154544 0)
(-0.03965459774 -0.05149757714 0)
(-0.02142876615 -0.04088900434 0)
(-0.007584086486 -0.02493709525 0)
(-0.0005642637995 -0.007701830339 0)
(-0.0009280031032 0.01406568621 0)
(-0.008675390487 0.03533989951 0)
(-0.02126431392 0.04958478646 0)
(-0.03661145142 0.05776692802 0)
(-0.05312448433 0.06086619508 0)
(-0.06974340694 0.05970401471 0)
(-0.08566828197 0.05481257012 0)
(-0.100190787 0.04645899969 0)
(-0.1125893905 0.03477057601 0)
(-0.1220742356 0.01991497819 0)
(-0.1277774651 0.002302678391 0)
(-0.1287991388 -0.01721492055 0)
(-0.1243239307 -0.03718253915 0)
(-0.1138256801 -0.05546422829 0)
(-0.0973659293 -0.06933683714 0)
(-0.07595197254 -0.07587314085 0)
(-0.05184235368 -0.07270985264 0)
(-0.02856325843 -0.05913962994 0)
(-0.01029251655 -0.0370989863 0)
(-0.0008126916603 -0.01194144471 0)
(-0.001038127787 0.01879669319 0)
(-0.009756600317 0.04643916519 0)
(-0.02380137498 0.06443089654 0)
(-0.04085116767 0.0745513444 0)
(-0.05915672246 0.07831811613 0)
(-0.07763674434 0.07690364353 0)
(-0.09553185703 0.07101737188 0)
(-0.1121881613 0.06096465035 0)
(-0.1269142402 0.04681454112 0)
(-0.1388924859 0.0286261117 0)
(-0.1471372497 0.006704279042 0)
(-0.1505124174 -0.01813308954 0)
(-0.1478324369 -0.04429837928 0)
(-0.138080512 -0.06924382016 0)
(-0.1207804802 -0.08943772909 0)
(-0.09652524141 -0.1007044288 0)
(-0.06756854887 -0.0991527281 0)
(-0.03817761857 -0.08278946173 0)
(-0.01412440153 -0.05334116583 0)
(-0.001188358858 -0.01772721436 0)
(-0.001132399755 0.02407498046 0)
(-0.01075951555 0.05872272614 0)
(-0.02609450136 0.08077776865 0)
(-0.04462101541 0.09296858023 0)
(-0.06444179882 0.0974769257 0)
(-0.08448566323 0.09591089977 0)
(-0.1040738957 0.08919630778 0)
(-0.12265453 0.0776747915 0)
(-0.1396213938 0.06131856674 0)
(-0.1541910265 0.0400038353 0)
(-0.1653232583 0.01381937828 0)
(-0.1716954497 -0.0165934478 0)
(-0.1717624754 -0.04967343595 0)
(-0.163946859 -0.08259560084 0)
(-0.1470365074 -0.1110403256 0)
(-0.1208636635 -0.1293525813 0)
(-0.08724733733 -0.1314885621 0)
(-0.0509186342 -0.1131817714 0)
(-0.01953482459 -0.07508052303 0)
(-0.001759551693 -0.02573007578 0)
(-0.001214742699 0.02986986213 0)
(-0.01169581503 0.07205883611 0)
(-0.0281141886 0.09840454239 0)
(-0.04778908208 0.11271166 0)
(-0.06867273162 0.1179711327 0)
(-0.08973425271 0.1163248671 0)
(-0.1104175341 0.1089644919 0)
(-0.1303257273 0.0962770772 0)
(-0.1490073451 0.07811242551 0)
(-0.165804695 0.05410202385 0)
(-0.179736969 0.02401245563 0)
(-0.1894193197 -0.01185240654 0)
(-0.1930558995 -0.05217415324 0)
(-0.1885422542 -0.09410301992 0)
(-0.1738022764 -0.1327297887 0)
(-0.1475332943 -0.1608775757 0)
(-0.11048101 -0.169768073 0)
(-0.06715273155 -0.1515205318 0)
(-0.02702132482 -0.1040304755 0)
(-0.002621322023 -0.03687988207 0)
(-0.001300709797 0.03616781678 0)
(-0.01261980242 0.08630465677 0)
(-0.02988154411 0.1170152798 0)
(-0.05024991417 0.1333162773 0)
(-0.07151514034 0.1391860645 0)
(-0.09272062396 0.1374173242 0)
(-0.1134789138 0.1295297739 0)
(-0.1336053846 0.1159816141 0)
(-0.1528817925 0.09649956483 0)
(-0.1708896039 0.0704404348 0)
(-0.1868663747 0.03717415659 0)
(-0.1995649386 -0.003477775895 0)
(-0.2071651714 -0.05070972865 0)
(-0.2072233484 -0.1019945004 0)
(-0.1968337468 -0.1522716441 0)
(-0.1732819231 -0.1931454654 0)
(-0.1354934291 -0.2128238886 0)
(-0.08659018294 -0.1983142134 0)
(-0.03704731428 -0.1419914443 0)
(-0.003909023706 -0.05240340442 0)
(-0.001430881147 0.04301151856 0)
(-0.01368431407 0.1013438581 0)
(-0.03154816361 0.1362407994 0)
(-0.05201442413 0.154126725 0)
(-0.07270552478 0.1602037072 0)
(-0.09279432183 0.1580541023 0)
(-0.1121220257 0.1495973351 0)
(-0.1307776152 0.1354043937 0)
(-0.1488545247 0.1151094129 0)
(-0.1662895201 0.08781161492 0)
(-0.1827124413 0.05246560475 0)
(-0.1972842384 0.00831195773 0)
(-0.2084709572 -0.04457123299 0)
(-0.2138385108 -0.1044317953 0)
(-0.2099590808 -0.166724099 0)
(-0.1926948198 -0.2226019572 0)
(-0.1585260655 -0.2576220207 0)
(-0.1077015483 -0.2525290167 0)
(-0.04983194554 -0.190368677 0)
(-0.005811671481 -0.07383426641 0)
(-0.00169425469 0.05058356618 0)
(-0.01522770383 0.1171650315 0)
(-0.03350104407 0.1556564768 0)
(-0.05330791393 0.1742670665 0)
(-0.07214387147 0.1797551887 0)
(-0.08942638025 0.1766485157 0)
(-0.1053207354 0.1673311207 0)
(-0.1202603688 0.152531575 0)
(-0.1347190567 0.131846993 0)
(-0.1490832446 0.1041865374 0)
(-0.1635268279 0.06814703416 0)
(-0.1778399531 0.0223887804 0)
(-0.1911542537 -0.03386305801 0)
(-0.2015610415 -0.1000516686 0)
(-0.2056690334 -0.1729429926 0)
(-0.198353488 -0.2444805727 0)
(-0.1734760393 -0.2988732613 0)
(-0.1270196911 -0.310577553 0)
(-0.06490671743 -0.2492623595 0)
(-0.008572777022 -0.1029244054 0)
(-0.00226981298 0.05936262006 0)
(-0.01790427555 0.1339847316 0)
(-0.03647386148 0.1747938369 0)
(-0.05461738981 0.1925907094 0)
(-0.06988539422 0.1961681773 0)
(-0.08218517614 0.1911429209 0)
(-0.092169397 0.1803834616 0)
(-0.100704338 0.1647930241 0)
(-0.1086931288 0.1439880072 0)
(-0.1170131358 0.1167878989 0)
(-0.1264501066 0.08156377964 0)
(-0.1375705542 0.03652010174 0)
(-0.1504595388 -0.01995647384 0)
(-0.1642521009 -0.08870131248 0)
(-0.1763972208 -0.168516263 0)
(-0.1817410845 -0.2536563344 0)
(-0.17213587 -0.3293090426 0)
(-0.1386176279 -0.3655410109 0)
(-0.08036373077 -0.3160748054 0)
(-0.01243254747 -0.1413068539 0)
(-0.00348401289 0.07038025278 0)
(-0.02284971812 0.1523883444 0)
(-0.04157332422 0.1930699837 0)
(-0.05650172475 0.2075270697 0)
(-0.0657677829 0.2072419663 0)
(-0.07025481354 0.198966716 0)
(-0.07136586045 0.185955801 0)
(-0.07050724502 0.1692258077 0)
(-0.06903091548 0.1484268514 0)
(-0.06827352181 0.1223791599 0)
(-0.0695847467 0.08939734983 0)
(-0.07428743326 0.04745420354 0)
(-0.08350660612 -0.005658365221 0)
(-0.09775621086 -0.07204439603 0)
(-0.1161201613 -0.152869559 0)
(-0.134789437 -0.2460693064 0)
(-0.1452019786 -0.3408637043 0)
(-0.1341187719 -0.4072006478 0)
(-0.09185099458 -0.3839492455 0)
(-0.01737357311 -0.1897119743 0)
(-0.005805690424 0.08568418253 0)
(-0.0317138834 0.1733809066 0)
(-0.04981874415 0.2093629392 0)
(-0.05851929343 0.2165544272 0)
(-0.05787854422 0.2098320684 0)
(-0.05063366654 0.1968041799 0)
(-0.03928313298 0.1807660724 0)
(-0.02585412118 0.1626404236 0)
(-0.01210239398 0.1420358056 0)
(0.0003042991238 0.1178069709 0)
(0.009624968669 0.08834607522 0)
(0.01397668694 0.05165982219 0)
(0.01138267869 0.00534912081 0)
(4.704082262e-06 -0.05344554463 0)
(-0.02127783165 -0.127890807 0)
(-0.05135306195 -0.2201733041 0)
(-0.0837006517 -0.32651981 0)
(-0.1033026258 -0.4232076 0)
(-0.09157050468 -0.4409305046 0)
(-0.02246881823 -0.2469230399 0)
(-0.009764072614 0.1098554433 0)
(-0.04584438796 0.1980951853 0)
(-0.05955823895 0.2205936584 0)
(-0.0549771577 0.2148027882 0)
(-0.03748093395 0.1988706455 0)
(-0.01285743628 0.1800752207 0)
(0.01518448696 0.1609337807 0)
(0.04417206291 0.1418481505 0)
(0.07219947983 0.1221852232 0)
(0.09755101173 0.1007892322 0)
(0.1184016177 0.07622006076 0)
(0.1326665361 0.04672134724 0)
(0.1379219753 0.01009813382 0)
(0.1314759239 -0.03654074564 0)
(0.110494029 -0.097262469 0)
(0.0727936351 -0.1775528779 0)
(0.02024458921 -0.2821255702 0)
(-0.03480811266 -0.4009231182 0)
(-0.06791470724 -0.4702201637 0)
(-0.0249551313 -0.3089005314 0)
(-0.01713629626 0.1533506353 0)
(-0.06158580862 0.2248892557 0)
(-0.05482827276 0.2167765812 0)
(-0.02055447085 0.1917197265 0)
(0.02476726554 0.16599436 0)
(0.07306330809 0.1428738585 0)
(0.1207760351 0.1226801288 0)
(0.1659913498 0.1047625076 0)
(0.2073908234 0.0880287376 0)
(0.2438103511 0.07124594398 0)
(0.2737765002 0.05325904908 0)
(0.2954414569 0.0327360561 0)
(0.3064466317 0.00793172515 0)
(0.3039215354 -0.02343924629 0)
(0.2843206219 -0.06488286987 0)
(0.2428223657 -0.1227102622 0)
(0.1752240208 -0.2082585588 0)
(0.0848680105 -0.3300404473 0)
(-0.006030461601 -0.4493348259 0)
(-0.01753772571 -0.3605593319 0)
(-0.02330832754 0.2094365787 0)
(-0.03690756161 0.2324679234 0)
(0.03855804958 0.1774695527 0)
(0.1251012765 0.1366765356 0)
(0.2036660664 0.1075881986 0)
(0.2730485547 0.08566747483 0)
(0.334046916 0.06893743847 0)
(0.3872570802 0.05579501489 0)
(0.4330117099 0.04481930917 0)
(0.4712066253 0.03490052725 0)
(0.5012236277 0.02516104259 0)
(0.5226068315 0.01456467501 0)
(0.5334964331 0.002112940205 0)
(0.5312976469 -0.01350629748 0)
(0.5119588423 -0.0347459486 0)
(0.4699400436 -0.06539070383 0)
(0.3967035172 -0.1162642115 0)
(0.2803531509 -0.2083001251 0)
(0.126011029 -0.3387682466 0)
(0.03575699847 -0.3378992537 0)
(0.2422371629 0.1094236828 0)
(0.314792668 0.0974587994 0)
(0.4466655392 0.05681089732 0)
(0.5520411926 0.03458443886 0)
(0.6259313404 0.02290294388 0)
(0.6802309843 0.01576471405 0)
(0.7221835688 0.01109121385 0)
(0.7552976412 0.007945758333 0)
(0.7815177752 0.005717589934 0)
(0.8019336378 0.003992635359 0)
(0.8169388034 0.0024395329 0)
(0.826339681 0.0008067466216 0)
(0.8293415273 -0.001070463393 0)
(0.8245533288 -0.003333424371 0)
(0.8095410449 -0.00631561638 0)
(0.7799578696 -0.01079580765 0)
(0.7267090736 -0.01893814046 0)
(0.6320156848 -0.03570245624 0)
(0.4600588893 -0.08464438133 0)
(0.3039974453 -0.1254857243 0)
)


// ************************************************************************* //
