/*--------------------------------*- C++ -*----------------------------------*\
  =========                 |
  \\      /  F ield         | OpenFOAM: The Open Source CFD Toolbox
   \\    /   O peration     | Website:  https://openfoam.org
    \\  /    A nd           | Version:  13
     \\/     M anipulation  |
\*---------------------------------------------------------------------------*/
FoamFile
{
    format      ascii;
    class       vectorField;
    location    "10";
    object      U_all;
}
// * * * * * * * * * * * * * * * * * * * * * * * * * * * * * * * * * * * * * //


400
(
(7.423458398e-06 -3.172137006e-05 0)
(-0.0006583520537 0.0004074252154 -1.485486691e-23)
(-0.00213800517 0.0008991979905 0)
(-0.003949386623 0.001279167842 0)
(-0.005820017597 0.001494335394 6.157755553e-25)
(-0.007562769259 0.001527916212 4.080799832e-24)
(-0.009046849826 0.001386089939 -4.889529224e-24)
(-0.01017474794 0.001091386398 1.021527327e-23)
(-0.01086876597 0.0006799827383 -2.333310136e-25)
(-0.01106988538 0.000200248953 -4.373162155e-24)
(-0.01074264111 -0.0002909459987 6.246575376e-24)
(-0.00988625428 -0.0007294275698 -6.314808994e-23)
(-0.008547349433 -0.001053573371 -7.000899579e-23)
(-0.00682817642 -0.001212836042 -8.288828904e-23)
(-0.004890769972 -0.001179484043 4.931585181e-24)
(-0.002950992746 -0.0009594351176 -4.555384167e-24)
(-0.001255820266 -0.0006000942188 -2.310790807e-22)
(-7.297119576e-05 -0.0001869942026 0)
(0.0004798972612 0.0001515600917 3.053595209e-25)
(0.0002130311625 0.0002925411589 -2.290093066e-23)
(-0.0002564562764 0.0008171141331 1.328128611e-25)
(-0.002628420158 0.00329737861 1.494954301e-23)
(-0.006705524909 0.005446220266 1.464293525e-25)
(-0.01159718069 0.006804597971 -7.668596163e-25)
(-0.01662467295 0.007334801601 1.026190719e-24)
(-0.02132635955 0.007088185838 1.089356513e-23)
(-0.02535352746 0.006153083386 3.628684749e-24)
(-0.0284402049 0.00464110971 -9.903622048e-24)
(-0.03037905213 0.002691036421 1.163058269e-23)
(-0.03101999995 0.0004757100669 4.945779059e-24)
(-0.0302770597 -0.001795877414 -6.80263494e-24)
(-0.02815330523 -0.00388521168 2.70501404e-24)
(-0.02477019619 -0.005543195377 4.106378563e-23)
(-0.02038252171 -0.006541358727 -2.140694402e-24)
(-0.01538750589 -0.00671383625 4.156953983e-24)
(-0.01030784728 -0.006004749408 -1.13227833e-22)
(-0.005740063755 -0.004512873163 1.129837896e-22)
(-0.002282029895 -0.002529661836 -7.019118869e-25)
(-0.0002252943347 -0.0005592509104 7.196150737e-25)
(7.699917957e-05 0.0005653031813 0)
(-0.0004038647772 0.002857905052 -2.76703211e-25)
(-0.004496079773 0.008542652877 1.566665573e-23)
(-0.01100068727 0.01283337706 -8.262783037e-24)
(-0.01870055207 0.01530488214 -1.790882145e-25)
(-0.02659384685 0.01602919156 1.759375145e-25)
(-0.0340124287 0.01518937439 6.754212042e-26)
(-0.04043154864 0.01299954292 -3.381988687e-24)
(-0.04543985057 0.009690010198 -6.068848641e-25)
(-0.04871115774 0.00552462687 -1.217971372e-23)
(-0.05000173757 0.0008234600438 0)
(-0.04916506215 -0.004020141888 0)
(-0.0461840198 -0.008552541516 2.902753866e-23)
(-0.04121031082 -0.01227828194 3.059615543e-23)
(-0.03459404312 -0.01471744374 -1.849093153e-24)
(-0.02689929691 -0.01548428769 5.597878098e-23)
(-0.01888538902 -0.01438609839 1.095499838e-22)
(-0.01143643813 -0.01152883073 5.815814572e-23)
(-0.005439480701 -0.007412288142 1.03625155e-24)
(-0.001465076995 -0.002990244504 -2.227187342e-25)
(-9.112929823e-05 0.0001602344959 0)
(-0.0004824194501 0.005862123015 -3.931537851e-23)
(-0.006180277201 0.0158517491 -1.555758166e-23)
(-0.01500481218 0.02280605686 8.18182591e-24)
(-0.02539758148 0.0265737457 0)
(-0.03606107794 0.02745063125 0)
(-0.04615813461 0.02581109516 0)
(-0.0550218332 0.02202532021 -1.296181263e-25)
(-0.06211626408 0.01645648203 -3.025061142e-25)
(-0.0669996284 0.009500800817 0)
(-0.06931727075 0.001634617252 2.240406995e-24)
(-0.06882644867 -0.006550599459 3.201990837e-25)
(-0.06543474021 -0.01434733311 -3.210957363e-25)
(-0.05925275622 -0.02095563282 0)
(-0.05065145587 -0.02555995976 4.868433779e-23)
(-0.04029847258 -0.02745104159 -5.413413931e-23)
(-0.02915795272 -0.02619476206 -3.701375006e-23)
(-0.01842157601 -0.02182840751 -5.832579676e-23)
(-0.009351627141 -0.01504476417 7.540640721e-25)
(-0.002947350041 -0.007299022912 7.343623464e-23)
(-0.0002280403996 -0.0009307682473 0)
(-0.0005102864443 0.009769614987 3.950830141e-23)
(-0.007706564043 0.02510473785 4.867792249e-25)
(-0.01873950064 0.03524778956 -4.756649439e-25)
(-0.03173565541 0.0405269102 0)
(-0.0451372232 0.04158336551 7.199288142e-25)
(-0.05796730038 0.03904212866 -7.099483816e-25)
(-0.06944560375 0.03344797067 3.295358576e-23)
(-0.07892880925 0.02529168506 1.42574133e-23)
(-0.08585718934 0.01508515583 4.728797508e-24)
(-0.0897414703 0.003443700431 -2.243017409e-24)
(-0.09018902544 -0.008850303707 0)
(-0.08695337204 -0.02081787768 5.456915608e-25)
(-0.080010737 -0.03130172471 1.435081346e-23)
(-0.06965342684 -0.03905241223 -5.134589568e-23)
(-0.05657274829 -0.04289375691 2.476577491e-24)
(-0.04190902783 -0.0419800161 6.15558479e-23)
(-0.02721584472 -0.03612403857 -7.024951309e-25)
(-0.01428359198 -0.02612604893 0)
(-0.00477680236 -0.01396451786 5.198542444e-23)
(-0.0003550362985 -0.002881565115 -2.26840611e-22)
(-0.0005080496767 0.01450662365 9.795092532e-23)
(-0.009070117364 0.03616628257 -4.942310724e-25)
(-0.02214762068 0.05003844455 0)
(-0.03761313674 0.0570996832 0)
(-0.05369514754 0.05845472572 -8.389575198e-23)
(-0.06931167695 0.05503559767 -8.050553883e-23)
(-0.08360019933 0.04757090488 -3.650159572e-23)
(-0.09582993534 0.03665618705 -1.267404387e-23)
(-0.1053244427 0.02287716804 -4.02300354e-24)
(-0.1114356499 0.006940307322 -7.007246959e-24)
(-0.113567091 -0.01021757901 5.276355201e-24)
(-0.1112321652 -0.02735949118 6.25505672e-24)
(-0.1041581275 -0.04293310893 -1.762581815e-23)
(-0.09242860453 -0.0551484999 -6.505847598e-24)
(-0.07663816898 -0.06217351654 0)
(-0.05803470606 -0.06249007104 -2.63284869e-23)
(-0.03856906561 -0.05540743211 3.339976034e-25)
(-0.02073634115 -0.04163616091 0)
(-0.007179826465 -0.02367129668 -1.249557645e-22)
(-0.0005074090442 -0.005903601336 5.428138466e-22)
(-0.0004850138191 0.01997590871 -9.727785188e-23)
(-0.01022094881 0.04883667132 2.772035583e-22)
(-0.02508453888 0.06695945104 1.49031397e-22)
(-0.04277786328 0.0761183723 3.49903966e-24)
(-0.06137081618 0.07798710302 -7.076650451e-23)
(-0.07972016877 0.07385472384 8.561687741e-23)
(-0.09692010687 0.064634746 -3.389836086e-24)
(-0.1121828852 0.05099014601 -1.583129202e-24)
(-0.1247313084 0.03351619916 2.296555558e-24)
(-0.1337523889 0.01293176152 6.295629691e-24)
(-0.1384101349 -0.009749595191 -5.241595309e-24)
(-0.1379036194 -0.0330881132 -6.953618228e-24)
(-0.1315938143 -0.05513765873 -3.125462837e-23)
(-0.1191979734 -0.07348180044 -1.742267065e-23)
(-0.1010328144 -0.08542069678 1.699986686e-25)
(-0.07829634243 -0.088410944 0)
(-0.05328230913 -0.08081030529 0)
(-0.02933152666 -0.0628459196 -2.43715876e-24)
(-0.0104671988 -0.03741497135 2.491208641e-24)
(-0.0007164080314 -0.01039199646 9.929858112e-23)
(-0.0004415155123 0.02603422577 0)
(-0.01107415534 0.06281555467 1.945664447e-22)
(-0.02733669204 0.08565244597 8.708366801e-23)
(-0.04684975271 0.09724167289 0)
(-0.06758722062 0.09991547116 1.512530492e-22)
(-0.08839407299 0.09536449846 0)
(-0.1083687646 0.08468544803 -1.359254822e-22)
(-0.1267125732 0.06856543685 6.148642868e-24)
(-0.1425887338 0.04753142675 0)
(-0.1550490273 0.02221051475 0)
(-0.1630260515 -0.006425372235 -1.242034159e-24)
(-0.1653721986 -0.03683377863 -7.973276554e-25)
(-0.16099429 -0.06675811219 1.31497874e-22)
(-0.1490836733 -0.09313597703 -4.517915828e-23)
(-0.1294398916 -0.1122229437 -2.047764258e-24)
(-0.1029273 -0.1200454205 1.052222013e-24)
(-0.07195225314 -0.1133685772 -1.068820296e-24)
(-0.04069655601 -0.09122258536 0)
(-0.01500308868 -0.05650891657 2.916865385e-24)
(-0.001021202211 -0.01692127398 -9.361644433e-22)
(-0.0003777261093 0.03248518766 0)
(-0.01154331584 0.07768202251 -1.104149328e-22)
(-0.02867291928 0.1055876885 -6.032397196e-22)
(-0.04939067058 0.1199054308 -3.648242933e-22)
(-0.07163646322 0.123699969 0)
(-0.09429321711 0.1191071557 3.964187746e-22)
(-0.1165171719 0.1074118591 1.199829513e-22)
(-0.1375608217 0.08929028242 -5.28345504e-24)
(-0.1566004911 0.06512719064 5.257305626e-24)
(-0.1726320085 0.03534747472 0)
(-0.1844179825 0.0007382910309 2.746056667e-23)
(-0.1905221125 -0.03723629976 4.332875797e-24)
(-0.1893956338 -0.07616563579 -9.72678796e-23)
(-0.1795798679 -0.1124553476 7.036648982e-23)
(-0.1601049026 -0.1412702641 -2.186658969e-22)
(-0.1310955451 -0.1568568965 0)
(-0.09459102756 -0.1536020435 0)
(-0.05529629132 -0.1281880346 0)
(-0.02118617923 -0.08254151625 0)
(-0.001472947542 -0.02628485849 5.174063456e-22)
(-0.000301359622 0.03909137709 0)
(-0.01158593603 0.0929110519 -3.406169727e-22)
(-0.02892762964 0.1260638754 8.706902778e-22)
(-0.05002289794 0.1432937473 3.51382874e-22)
(-0.07283044941 0.1484600733 0)
(-0.09631761302 0.1441928257 -3.717573036e-22)
(-0.1197537327 0.1319873216 -3.046770264e-23)
(-0.142515986 0.1124984657 3.199221794e-22)
(-0.163892279 0.08592113227 1.694630267e-22)
(-0.182948413 0.05238591344 -3.883975562e-23)
(-0.1984405006 0.01234815182 1.616302387e-23)
(-0.2087819297 -0.03302544132 -7.796337181e-24)
(-0.2120727343 -0.08142717768 3.203496139e-22)
(-0.2062290997 -0.1290240486 0)
(-0.1893286908 -0.1700836844 2.187714954e-22)
(-0.1603057344 -0.1969536337 5.077192289e-24)
(-0.1201027574 -0.200892388 -5.152909382e-24)
(-0.07314683076 -0.1746461872 1.329136958e-22)
(-0.02940467076 -0.1172133191 -4.789543206e-24)
(-0.002148326754 -0.03951902611 0)
(-0.0002362196974 0.0456187471 0)
(-0.01126328082 0.1079353764 0)
(-0.02811137681 0.1462535605 -4.897603671e-22)
(-0.0485902699 0.1663549081 -1.833226441e-23)
(-0.07071652355 0.1729572309 1.975435148e-23)
(-0.09358928952 0.1692453728 -1.952110694e-23)
(-0.1166477783 0.1569716327 -2.232128851e-23)
(-0.1394720021 0.1367961966 -2.907165518e-22)
(-0.1615745851 0.1087228892 6.577067669e-23)
(-0.1822505734 0.07254323916 4.315306374e-23)
(-0.2004562887 0.0282677345 -4.370690564e-23)
(-0.2147025951 -0.02343283057 0)
(-0.2230025493 -0.0807067375 -7.136418562e-23)
(-0.2228451156 -0.139942561 0)
(-0.2113698511 -0.1950233998 -3.56844295e-22)
(-0.1859912756 -0.2367141857 4.946061443e-22)
(-0.1457209876 -0.2527649806 0)
(-0.09338136127 -0.2302384541 -1.281181817e-22)
(-0.03992531542 -0.1619752815 1.717197904e-22)
(-0.003167703792 -0.05790550789 -3.191884025e-22)
(-0.0002351668419 0.05192205381 0)
(-0.01081612982 0.1222616625 8.987241155e-22)
(-0.02653930863 0.1653008422 -2.385704977e-23)
(-0.04533911781 0.187871626 8.986050989e-22)
(-0.06532058911 0.1956455738 -2.448955815e-23)
(-0.08578171482 0.1924402764 2.754402657e-23)
(-0.10639858 0.1803331903 -2.729259344e-23)
(-0.1270321414 0.1600525943 -1.60693763e-23)
(-0.1475259027 0.1314643283 -5.090726563e-22)
(-0.1675576058 0.09404647188 -8.614243388e-24)
(-0.1865018747 0.04732992391 9.347034987e-24)
(-0.2032623557 -0.008658786692 3.221750971e-22)
(-0.216134943 -0.07288182158 -5.636247223e-22)
(-0.2225833598 -0.1424849569 0)
(-0.2191324655 -0.2117880995 8.558435038e-22)
(-0.2016852275 -0.2708686818 -4.659984317e-22)
(-0.1666905773 -0.304370011 -1.482904703e-23)
(-0.1137388743 -0.2924167035 0)
(-0.05266570233 -0.2173782997 -1.673546744e-22)
(-0.004717094562 -0.08291632257 3.144754261e-22)
(-0.0004046905844 0.05808622055 1.51861833e-23)
(-0.01076479783 0.1356445241 -8.577536415e-22)
(-0.02496476874 0.1824658752 -1.135250793e-21)
(-0.04107825245 0.206578984 -8.434529985e-22)
(-0.05734413843 0.2147898609 0)
(-0.07338515687 0.2116447845 3.423844538e-23)
(-0.08921312349 0.1996175595 -7.103659403e-23)
(-0.1050506137 0.1795806511 5.709955426e-23)
(-0.1211515463 0.1513500903 2.931482219e-22)
(-0.1376783063 0.1141787596 -1.097871366e-23)
(-0.1545782585 0.06717311312 0)
(-0.1714302278 0.009681985121 -3.503176961e-22)
(-0.1871638876 -0.05824766797 7.339017304e-22)
(-0.1997299668 -0.1350659407 8.652423049e-22)
(-0.205716122 -0.2164800326 -5.12973754e-22)
(-0.2000395331 -0.293314526 5.027502811e-22)
(-0.1765538056 -0.3485962925 1.002767742e-23)
(-0.1302045248 -0.3556613929 -1.018871201e-23)
(-0.06681000755 -0.2821028813 -1.008367698e-22)
(-0.007058823075 -0.1160402249 0)
(-0.0009541985103 0.06464602152 -1.876530309e-23)
(-0.01205182144 0.1482920546 -1.305456063e-21)
(-0.02469927931 0.197254591 1.073716374e-21)
(-0.03725519265 0.2212563283 6.622994503e-22)
(-0.04820334649 0.2285780638 5.908934232e-22)
(-0.05773677868 0.2245938552 6.517070662e-22)
(-0.06636260792 0.2122069687 -4.358400909e-23)
(-0.07475729031 0.1924767839 -3.390207006e-22)
(-0.08362987959 0.1652474409 2.10826688e-22)
(-0.09365425004 0.1296601203 0)
(-0.1053940505 0.08452797515 0)
(-0.1191799841 0.02863569792 2.612797181e-22)
(-0.134862278 -0.03891444372 8.332934138e-23)
(-0.1514058368 -0.1181601295 -2.731062715e-22)
(-0.1662633659 -0.2069844029 -5.319181463e-23)
(-0.1744520582 -0.2986468242 1.327124913e-22)
(-0.1681413104 -0.377133402 -3.302844363e-22)
(-0.1370749017 -0.411375152 -2.397448341e-23)
(-0.08029528477 -0.3518203695 1.006989528e-22)
(-0.01049974801 -0.1584419683 -6.150639241e-22)
(-0.002305476859 0.07296741846 0)
(-0.01625161565 0.1611308063 2.113414169e-21)
(-0.02764848067 0.2095280172 0)
(-0.03578824319 0.2307724455 -1.331856691e-21)
(-0.03967636813 0.235189385 6.317833867e-23)
(-0.04051635052 0.2290304399 -6.074301503e-22)
(-0.0395453004 0.2155575527 -4.674852595e-22)
(-0.03799578034 0.195966943 8.143048994e-22)
(-0.03703925879 0.1701376701 -1.846798243e-22)
(-0.03780824728 0.1371822722 0)
(-0.04140313441 0.09577648321 0)
(-0.04884215921 0.04436927505 2.481290812e-23)
(-0.06093596304 -0.01864012416 -5.92187711e-22)
(-0.07793623982 -0.09467673279 -4.249498332e-22)
(-0.09891798917 -0.1840640312 4.599895627e-22)
(-0.1203769582 -0.2838899882 -6.38108637e-22)
(-0.1347730828 -0.382304743 8.654598581e-23)
(-0.1274190526 -0.4488222023 3.777773913e-23)
(-0.08929436329 -0.4182672414 5.695381394e-22)
(-0.01528580575 -0.2102947424 6.139048526e-22)
(-0.005219744069 0.08571720984 0)
(-0.02571685322 0.1756425662 1.476508281e-22)
(-0.0358984258 0.2189774001 -4.86046473e-23)
(-0.03810610812 0.2335072563 7.542685124e-22)
(-0.03248610596 0.2323308111 -6.906042477e-22)
(-0.02196288567 0.2224017757 4.677330962e-23)
(-0.00878447641 0.2070552382 -1.014523799e-22)
(0.005174188218 0.187403056 -3.32925693e-22)
(0.01831754725 0.1632724522 2.032923354e-22)
(0.02916940972 0.1337537212 0)
(0.03624480317 0.09750354643 0)
(0.03801820542 0.05288390074 -2.867047945e-22)
(0.03286807551 -0.001992537359 0)
(0.01933500717 -0.06934459698 -5.480141476e-22)
(-0.003608911084 -0.1514484249 -1.300723616e-23)
(-0.03507868234 -0.2495923352 2.540011769e-23)
(-0.07067349998 -0.3589656822 2.154955155e-22)
(-0.0933128888 -0.4566105791 4.9436321e-24)
(-0.08759805199 -0.4687685082 -5.828108231e-22)
(-0.02107473347 -0.2692173403 0)
(-0.01113701918 0.1085729483 0)
(-0.04286731108 0.194248662 -8.758463871e-22)
(-0.04889112563 0.2248524458 -5.375353214e-22)
(-0.04075334583 0.2268989644 4.513534132e-22)
(-0.02093795108 0.2168279978 -1.754439095e-24)
(0.00499160125 0.201536412 -4.516368452e-23)
(0.03363395121 0.1837768226 5.62215556e-22)
(0.06256655807 0.1641439889 -2.729144244e-23)
(0.08994585392 0.1421935353 -2.039174169e-22)
(0.1141349273 0.1169309005 3.103889579e-23)
(0.1334709881 0.08705877985 -3.389784689e-23)
(0.1461463573 0.05105407127 -3.66168605e-23)
(0.1500007404 0.007146874959 3.185423559e-22)
(0.1427184046 -0.04701673504 6.085343728e-22)
(0.1216095726 -0.1144956512 -5.080131798e-22)
(0.08476990541 -0.1997814865 -1.621665401e-22)
(0.03061170036 -0.3062871312 1.51524856e-22)
(-0.02460790205 -0.4234881009 7.291394857e-23)
(-0.06531693064 -0.4866014001 1.910991864e-21)
(-0.02515371442 -0.3287181077 2.952394694e-21)
(-0.02003314599 0.1461992764 -4.36809225e-23)
(-0.06433875684 0.2112160788 4.395127788e-23)
(-0.0512638695 0.2173076408 9.952061333e-22)
(-0.02037786234 0.2007563798 -7.060629708e-24)
(0.02258592069 0.1800584185 0)
(0.06948552911 0.1598645335 4.324321399e-23)
(0.1166426807 0.1409758782 -2.248865033e-22)
(0.1618102018 0.1228934118 -8.920829611e-23)
(0.2034676663 0.104675764 3.634570738e-23)
(0.2402567247 0.0852190172 -1.680723537e-23)
(0.2706835063 0.06334578245 3.393795301e-23)
(0.2929895494 0.03780631697 -6.53852281e-23)
(0.3047162878 0.007138680743 -9.234473377e-23)
(0.3032961934 -0.03028170134 1.512354026e-22)
(0.2850298394 -0.0773620128 0)
(0.2459714387 -0.1395819131 1.513004427e-22)
(0.1802115681 -0.2264743933 2.55494104e-22)
(0.09538625463 -0.3441892373 0)
(-0.007031928515 -0.4550119052 -3.671185748e-21)
(-0.01927875284 -0.3775617381 -2.890068036e-21)
(-0.02588043361 0.2278161284 -9.501911683e-22)
(-0.03992073743 0.2239138692 -1.384989959e-22)
(0.03649196401 0.1809789166 -2.323609595e-22)
(0.1087040646 0.1448583534 -1.185391046e-22)
(0.1810041496 0.1168751271 -4.284902404e-23)
(0.2478940141 0.09588765643 9.719538804e-23)
(0.3085705616 0.07968645169 -1.395383393e-22)
(0.3629020411 0.06633924231 1.282306133e-22)
(0.4107714775 0.05440231423 -8.512877691e-23)
(0.45176366 0.04276235822 1.131072372e-25)
(0.4850342848 0.03049767994 1.513520753e-23)
(0.5091886779 0.01678723708 7.931611001e-23)
(0.5223721285 0.0008095075665 -1.800758599e-22)
(0.5222006344 -0.01836277254 -1.612426009e-22)
(0.5045096947 -0.04264327278 -4.260735039e-23)
(0.4653614957 -0.0761918635 0)
(0.3948992979 -0.128564485 -1.833892688e-22)
(0.2913281701 -0.2208319915 8.135106495e-22)
(0.1195776341 -0.3524891585 1.629513955e-21)
(0.02666314124 -0.377524356 2.171567732e-21)
(0.2143300946 0.1347846785 9.851424784e-22)
(0.2777581445 0.09875639762 0)
(0.4318008515 0.05812792382 -2.58821782e-22)
(0.5305348385 0.03845551839 -1.738515891e-22)
(0.6015916664 0.02620136345 0)
(0.6568074722 0.01827816017 -5.974039879e-23)
(0.7010122921 0.01310005364 6.316487999e-23)
(0.7369455651 0.009522258161 -1.776672479e-23)
(0.7661987336 0.006806297625 2.848749544e-23)
(0.7894708246 0.004488712357 2.286182668e-23)
(0.8067855484 0.002263223328 0)
(0.817715325 -9.651192677e-05 -2.847888794e-23)
(0.8212581957 -0.002664908484 0)
(0.8160100608 -0.005668528399 2.727117481e-23)
(0.7990329586 -0.009585153717 1.430635335e-23)
(0.7679853185 -0.01499487176 -5.783308809e-23)
(0.7106764938 -0.02503578519 -2.528067832e-22)
(0.6235318803 -0.04205531834 -6.907406244e-22)
(0.4230069765 -0.09184298566 0)
(0.2705633601 -0.1524082243 -2.118421937e-21)
)


// ************************************************************************* //
