/*--------------------------------*- C++ -*----------------------------------*\
  =========                 |
  \\      /  F ield         | OpenFOAM: The Open Source CFD Toolbox
   \\    /   O peration     | Website:  https://openfoam.org
    \\  /    A nd           | Version:  13
     \\/     M anipulation  |
\*---------------------------------------------------------------------------*/
FoamFile
{
    format      ascii;
    class       volScalarField;
    location    "7";
    object      p;
}
// * * * * * * * * * * * * * * * * * * * * * * * * * * * * * * * * * * * * * //

dimensions      [0 2 -2 0 0 0 0];

internalField   nonuniform List<scalar> 
400
(
-5.255033249e-10
-0.0003394888365
-0.0006900496631
-0.0008644511834
-0.0007861801091
-0.0004337654017
0.0001904063006
0.001070054464
0.002175825056
0.003462136214
0.004863351831
0.006292166202
0.007642503539
0.008799519295
0.009656153583
0.01013561489
0.01021561245
0.009950039889
0.009489792482
0.009088962553
0.0003409241341
-8.055858992e-06
-0.00029847189
-0.0004202114065
-0.000319801963
1.647211936e-05
0.0005874084732
0.001381956533
0.002377460643
0.003535752135
0.00479954448
0.006091258151
0.007316258757
0.008371895443
0.009162845877
0.009620767497
0.009724445352
0.009516471564
0.009120361563
0.008707173614
0.0007058879067
0.0002572750617
-5.45010391e-05
-0.0001718507565
-7.425745804e-05
0.0002375234669
0.0007603947737
0.001487975716
0.002405175654
0.003482197274
0.004669686241
0.005896532171
0.007072379413
0.008095956844
0.008870104793
0.009321372818
0.009419845986
0.00919406558
0.008745889287
0.008206956653
0.0008905510174
0.0003193523801
-5.426849001e-05
-0.0002002236345
-0.0001237394794
0.0001592836341
0.0006426187212
0.001324364338
0.002197701959
0.003242003653
0.004415618828
0.005651568925
0.006858220067
0.007926541888
0.008745387887
0.009223086513
0.009310788984
0.009021724332
0.00845454392
0.007742032736
0.0007715099399
7.178191763e-05
-0.0003803710852
-0.0005731577697
-0.000530042872
-0.0002791066573
0.0001716784093
0.0008260689787
0.001686837109
0.002743766003
0.003963439632
0.005281794279
0.006602002845
0.007799644619
0.008738280248
0.009294672225
0.009389743743
0.009018914291
0.008292266114
0.007364602066
0.0002612473281
-0.0005675967304
-0.001105239409
-0.001354288814
-0.001352886913
-0.001138672592
-0.0007191402159
-8.260793854e-05
0.0007858452564
0.001889279192
0.003205291913
0.004674236635
0.00619327952
0.007617176846
0.008773120738
0.009490215613
0.009642043853
0.009195836194
0.008279254578
0.007083751153
-0.0007170560396
-0.00167632205
-0.002304588863
-0.002617071417
-0.002666722547
-0.002499648328
-0.002120760834
-0.001507473099
-0.0006287547105
0.0005368410342
0.001983941963
0.003663544553
0.005470363643
0.007236698974
0.008742806411
0.009749248802
0.01005443298
0.009572555317
0.008443032167
0.006907329224
-0.002240318821
-0.003334020055
-0.004059520599
-0.004444413132
-0.004559917404
-0.004461333812
-0.004149391459
-0.003587251704
-0.002722554641
-0.001507809681
7.906096539e-05
0.002011121946
0.004192628798
0.006438770021
0.008475619739
0.009969694923
0.01060109999
0.01018252353
0.008838097266
0.006871198984
-0.004391918122
-0.005625977944
-0.006456973161
-0.006926264614
-0.007130321215
-0.007136338677
-0.006940075852
-0.006487207128
-0.005698156259
-0.004489673216
-0.002797379432
-0.0006069532734
0.002018225941
0.004894490803
0.007696643152
0.009971754264
0.01122114563
0.01107201518
0.009566386791
0.007073472548
-0.007266635015
-0.008645864847
-0.00958916966
-0.01015504179
-0.01047659266
-0.01063790744
-0.01063007913
-0.01037883442
-0.009771959366
-0.008680217731
-0.00697953651
-0.00458403708
-0.001491905735
0.002153378903
0.005999796011
0.009462089224
0.01179071949
0.01229716383
0.01080494257
0.007726193556
-0.01097678549
-0.0124990035
-0.01355188662
-0.01421736135
-0.01468289826
-0.01505704747
-0.01532760035
-0.0153991884
-0.01512340297
-0.01431624696
-0.01277543914
-0.01031243822
-0.006811723007
-0.002312719491
0.002864780109
0.008024905382
0.01210497843
0.01392544313
0.01284851804
0.009240706834
-0.01566446243
-0.01730892438
-0.0184418489
-0.0191806449
-0.01979454386
-0.02042650191
-0.02106238361
-0.02158557191
-0.02181078867
-0.02149496206
-0.02034355327
-0.01803769992
-0.01429402178
-0.008961365771
-0.002224559466
0.005194732713
0.01191165879
0.0160661281
0.01618367695
0.01237281347
-0.02152991903
-0.0232325813
-0.0243541619
-0.02507292505
-0.02578236184
-0.02667023508
-0.02771866914
-0.02878846549
-0.029659075
-0.03003063833
-0.02951445821
-0.02764147492
-0.02390818713
-0.0178933916
-0.009502655768
0.0006862228911
0.01107120583
0.01898569789
0.02163017846
0.01846772533
-0.02889790001
-0.03049373093
-0.03137998673
-0.03185223085
-0.03249291826
-0.03353904674
-0.03495709081
-0.03657792523
-0.03814596823
-0.03931028621
-0.0395949506
-0.03837969095
-0.0349260856
-0.02846919126
-0.01848897329
-0.005175614023
0.009922282281
0.02339169497
0.03061126175
0.02984876586
-0.03836459527
-0.03944824729
-0.0395994198
-0.03935483451
-0.03957703022
-0.0405329094
-0.04213831855
-0.04417293996
-0.04633783979
-0.04823265137
-0.04930503338
-0.04879848178
-0.04574280092
-0.03901466695
-0.02756274198
-0.0109265307
0.009834061709
0.03093205334
0.04561380121
0.05034003095
-0.05107192383
-0.05069438754
-0.04904103657
-0.04718525754
-0.04637007104
-0.04680113827
-0.04826069136
-0.05042931428
-0.05293606236
-0.05531484393
-0.05693297488
-0.05691122482
-0.05407473313
-0.04695350018
-0.03394101467
-0.01372630056
0.0136385753
0.04474342849
0.07079852636
0.0857673339
-0.06926184849
-0.06523679521
-0.05949143124
-0.05443695494
-0.05165970156
-0.05100281795
-0.05193069801
-0.05392920256
-0.05649097707
-0.05903910186
-0.06083438295
-0.06087061999
-0.05776977164
-0.04973023993
-0.03461837026
-0.01015564737
0.02512041405
0.06933965441
0.1124836289
0.1447051565
-0.09945417908
-0.08488015094
-0.06974375807
-0.05895700781
-0.05323713257
-0.0511440147
-0.0514419532
-0.05324480175
-0.0558212093
-0.05842353964
-0.0601824953
-0.05994588303
-0.0561151638
-0.04655850173
-0.02857452568
0.001187457958
0.04625380739
0.1081795895
0.1787741305
0.2439063404
-0.1710934653
-0.1123026705
-0.07569072063
-0.05657844149
-0.04807436085
-0.04525012494
-0.04565980018
-0.04790599501
-0.05098122395
-0.05396838001
-0.05589423007
-0.05554144954
-0.05113145517
-0.04021649667
-0.01949113843
0.01568618962
0.07178391986
0.1570749717
0.2752668384
0.4263259475
-0.35056312
-0.1512209433
-0.07036799968
-0.04497303337
-0.03611992613
-0.03396393473
-0.03550729018
-0.03903046486
-0.04331305214
-0.04734468287
-0.05008623776
-0.05027798945
-0.04616387034
-0.03518907204
-0.01352433713
0.02488774438
0.09083374173
0.2062990528
0.4041629874
0.7135136672
)
;

boundaryField
{
    movingWall
    {
        type            zeroGradient;
    }
    fixedWalls
    {
        type            zeroGradient;
    }
    frontAndBack
    {
        type            empty;
    }
}


// ************************************************************************* //
