/*--------------------------------*- C++ -*----------------------------------*\
  =========                 |
  \\      /  F ield         | OpenFOAM: The Open Source CFD Toolbox
   \\    /   O peration     | Website:  https://openfoam.org
    \\  /    A nd           | Version:  13
     \\/     M anipulation  |
\*---------------------------------------------------------------------------*/
FoamFile
{
    format      ascii;
    class       volScalarField;
    location    "7";
    object      p;
}
// * * * * * * * * * * * * * * * * * * * * * * * * * * * * * * * * * * * * * //

dimensions      [0 2 -2 0 0 0 0];

internalField   nonuniform List<scalar> 
100
(
-4.78933e-10
-0.000608475
-0.000622483
0.000360655
0.00238261
0.00526733
0.00841463
0.0107196
0.0112223
0.0102794
0.000697458
-1.31467e-05
-0.000133573
0.000602183
0.0022604
0.00479634
0.00771942
0.00997153
0.0104573
0.00933585
0.000451901
-0.000495897
-0.000865787
-0.000470642
0.000855672
0.00331314
0.00657788
0.00944162
0.0102783
0.0089219
-0.00170156
-0.00291466
-0.00367031
-0.00379606
-0.00291279
-0.000392054
0.00377663
0.00825731
0.0105069
0.00968381
-0.00645647
-0.0078716
-0.00918171
-0.0102314
-0.0103198
-0.00810951
-0.00281276
0.00454906
0.0103328
0.0123593
-0.0144203
-0.0157712
-0.0177371
-0.0202647
-0.0222607
-0.0213681
-0.015288
-0.00371522
0.00901883
0.0182873
-0.0260345
-0.0264992
-0.0286556
-0.0328248
-0.0374351
-0.0388679
-0.0325154
-0.0152703
0.00914064
0.0317143
-0.0421459
-0.0390695
-0.0391578
-0.0438464
-0.0503604
-0.0535409
-0.0460755
-0.0204402
0.0230295
0.0700324
-0.0709632
-0.0514201
-0.0437634
-0.0465908
-0.0532005
-0.0558008
-0.0442474
-0.00485028
0.0710287
0.172932
-0.152485
-0.0635381
-0.0365064
-0.0384047
-0.0455353
-0.0468764
-0.0296767
0.0293175
0.153084
0.340705
)
;

boundaryField
{
    movingWall
    {
        type            zeroGradient;
    }
    fixedWalls
    {
        type            zeroGradient;
    }
    frontAndBack
    {
        type            empty;
    }
}


// ************************************************************************* //
