/*--------------------------------*- C++ -*----------------------------------*\
  =========                 |
  \\      /  F ield         | OpenFOAM: The Open Source CFD Toolbox
   \\    /   O peration     | Website:  https://openfoam.org
    \\  /    A nd           | Version:  13
     \\/     M anipulation  |
\*---------------------------------------------------------------------------*/
FoamFile
{
    format      ascii;
    class       scalarField;
    location    "7";
    object      p_all;
}
// * * * * * * * * * * * * * * * * * * * * * * * * * * * * * * * * * * * * * //


400
(
9.7974036e-09
-0.0004749857606
-0.0007519727299
-0.0008199018654
-0.0006913584348
-0.0003976423955
2.563779812e-05
0.0005446910809
0.001125784687
0.001732239851
0.002322414518
0.002848846748
0.003260424535
0.003507001373
0.003547155898
0.00335883841
0.002952497348
0.002379802584
0.001792081178
0.001247457786
0.0005103940736
5.600848016e-06
-0.0002921293533
-0.0003743900069
-0.0002874055259
-5.732446092e-05
0.0002868912228
0.0007165053368
0.001201349732
0.001706789294
0.002195914719
0.002621959744
0.002937952147
0.003098880286
0.003070310883
0.002838895115
0.002422411086
0.001875642605
0.001339587655
0.000739398863
0.0008056290077
0.0002476435109
-8.232615863e-05
-0.0001667983248
-9.796509505e-05
9.50846724e-05
0.0003875618259
0.0007567981712
0.001178531538
0.001623567514
0.002054893824
0.002429396361
0.002698724508
0.002816564584
0.00274757807
0.002477837937
0.002023334047
0.001431436172
0.0008033165258
3.4627228e-05
0.0007843737725
0.0001630573803
-0.0002079841331
-0.0002937413753
-0.000231032325
-5.515001726e-05
0.0002109653637
0.0005509125763
0.0009477252571
0.001378149131
0.001807844657
0.002191942751
0.002475641416
0.002602641379
0.002525638448
0.002218976837
0.001688364405
0.0009729287783
0.0001470966149
-0.000897668212
0.0003005751717
-0.0003641541482
-0.000758564422
-0.0008370929579
-0.0007726113965
-0.0006053229515
-0.0003549451388
-2.916333593e-05
0.0003655496286
0.0008150019914
0.001289531923
0.001742890428
0.002109972963
0.002316578996
0.002291446346
0.001983133829
0.001375277922
0.0004948829322
-0.0006035428621
-0.001997778162
-0.0007742545203
-0.001457897744
-0.001860682716
-0.001928920381
-0.00186611059
-0.001715121432
-0.001489457557
-0.001183906998
-0.0007889297592
-0.0003031184153
0.0002546521229
0.0008414018752
0.001381001137
0.001773972795
0.0019094905
0.001688586807
0.001050659829
-2.807516112e-06
-0.001441703955
-0.003283187951
-0.002560633821
-0.003238378203
-0.003643940057
-0.003711963062
-0.003674469685
-0.003574809264
-0.003416583927
-0.003175929932
-0.002818763261
-0.002316668945
-0.001664686355
-0.0008889025194
-7.020736885e-05
0.0006634243989
0.001142963708
0.001188180871
0.000653318351
-0.0005199384855
-0.002350115642
-0.004754038057
-0.005163630551
-0.005816146449
-0.006228569621
-0.006324310235
-0.006362730978
-0.006386488203
-0.006386175207
-0.006312996847
-0.006097315421
-0.005666777983
-0.00496937946
-0.003986749447
-0.002784802038
-0.001510921719
-0.0004078171846
0.0002169943533
6.299078525e-05
-0.001060041545
-0.003282265242
-0.006371017376
-0.008663391844
-0.00927565032
-0.009707250216
-0.009874737266
-0.01006558148
-0.01032325721
-0.01062472221
-0.01089154303
-0.01100707752
-0.01083297221
-0.01023098465
-0.009118466731
-0.007479909413
-0.005453443229
-0.003353486018
-0.001663067359
-0.0009400525288
-0.001637364984
-0.004133612472
-0.008002312086
-0.01310134975
-0.01365995804
-0.01412403627
-0.01441055021
-0.0148410307
-0.0154660256
-0.01625292777
-0.01709335033
-0.01781531771
-0.01819486506
-0.01797875986
-0.01693421242
-0.01492133495
-0.01198968805
-0.008479902869
-0.005071241743
-0.002697409166
-0.002277881441
-0.0046984054
-0.009341658036
-0.01847274563
-0.01896060758
-0.01945601264
-0.01988431385
-0.02061782943
-0.02172705749
-0.0231797872
-0.02484348736
-0.02648964924
-0.02779490355
-0.02835667137
-0.02774080424
-0.02559868138
-0.02177209159
-0.01652192741
-0.01067158136
-0.005611288036
-0.002980803757
-0.004597869558
-0.009773995194
-0.02473629064
-0.02512099253
-0.025606314
-0.02613032419
-0.02715297655
-0.02878555943
-0.03101133811
-0.03368432598
-0.03652572277
-0.03911100407
-0.04087288381
-0.04114108435
-0.03926804709
-0.03478101456
-0.02768857244
-0.01879373619
-0.009899425774
-0.003573678756
-0.003153976929
-0.008163895658
-0.03185539399
-0.0320605354
-0.0324137592
-0.03285876869
-0.03401570219
-0.0360654182
-0.03902278514
-0.04273785925
-0.04688947211
-0.05095896189
-0.05421932263
-0.05576400578
-0.05458509065
-0.04982769235
-0.04107272492
-0.0288423578
-0.01511709686
-0.003391501122
0.0008350687622
-0.002557621075
-0.03989700609
-0.03972962745
-0.03968531722
-0.03967694684
-0.04061611431
-0.04278609486
-0.04624239217
-0.05082928442
-0.05618164132
-0.06169068518
-0.06648076722
-0.06941793356
-0.06918043581
-0.06447082349
-0.05434902123
-0.03880120823
-0.01959986736
-0.0008088863512
0.009457068343
0.01015687171
-0.04922786125
-0.04817913186
-0.04721254628
-0.04609882345
-0.04624933405
-0.04806624928
-0.05163050119
-0.05675318887
-0.06300251326
-0.06966391011
-0.07571505535
-0.07981237201
-0.08035531862
-0.07562996606
-0.06418650224
-0.04531539295
-0.0202317544
0.007167606793
0.02615408911
0.0346477409
-0.06099888014
-0.05776517208
-0.05488066871
-0.05164534838
-0.05023678228
-0.05112385248
-0.0543452232
-0.05961016182
-0.06637741913
-0.07376583487
-0.08059299511
-0.08529763828
-0.08601755101
-0.08065027254
-0.06737222591
-0.04462442793
-0.01301386922
0.02503775809
0.05610456693
0.07767459829
-0.07787165087
-0.06901927805
-0.06236866353
-0.0556169464
-0.05183464084
-0.05130053898
-0.05385268762
-0.05898475922
-0.06593541401
-0.07364210226
-0.08069688744
-0.08529985387
-0.08532359849
-0.07829728114
-0.06188788265
-0.03404009356
0.005345022353
0.05808418819
0.1054775072
0.1476117583
-0.1087134969
-0.08433601932
-0.07047813735
-0.05811528157
-0.05101147861
-0.04863123894
-0.05030145244
-0.05512781191
-0.06203380659
-0.06969565996
-0.07646408282
-0.08029371602
-0.07881895229
-0.06899528637
-0.04815248058
-0.01329663615
0.03727677689
0.1060257731
0.1769885513
0.2554311494
-0.1671338652
-0.0988315547
-0.07440211243
-0.05447371879
-0.04424786335
-0.04083623386
-0.04238624434
-0.04743525108
-0.05458662463
-0.06230640042
-0.0687780701
-0.07178761483
-0.06858629269
-0.05625270968
-0.03105457852
0.01124500272
0.07448358332
0.1650954871
0.2748587967
0.4364704113
-0.3971554195
-0.1371343107
-0.07450365687
-0.04695596168
-0.03340120395
-0.02952837082
-0.03173607145
-0.0375881577
-0.04538099888
-0.05348767125
-0.06006626784
-0.06290729616
-0.05941828545
-0.04611669749
-0.01864071987
0.02941747002
0.1059957886
0.2322474836
0.4186682108
0.7788545926
)


// ************************************************************************* //
