/*--------------------------------*- C++ -*----------------------------------*\
  =========                 |
  \\      /  F ield         | OpenFOAM: The Open Source CFD Toolbox
   \\    /   O peration     | Website:  https://openfoam.org
    \\  /    A nd           | Version:  13
     \\/     M anipulation  |
\*---------------------------------------------------------------------------*/
FoamFile
{
    format      ascii;
    class       surfaceScalarField;
    location    "7";
    object      phi;
}
// * * * * * * * * * * * * * * * * * * * * * * * * * * * * * * * * * * * * * //

dimensions      [0 3 -1 0 0 0 0];

internalField   nonuniform List<scalar> 
180
(
-0.000248001
0.000248001
-0.00091901
0.000671009
-0.00176003
0.000841019
-0.0025307
0.000770666
-0.0030101
0.000479406
-0.00299347
-1.66343e-05
-0.00236624
-0.00062723
-0.00130065
-0.00106559
-0.000321154
-0.000979498
-0.000321154
-0.000830933
0.00107893
-0.00251075
0.00235083
-0.00442771
0.00275798
-0.00609746
0.00244041
-0.00708542
0.00146736
-0.00700643
-9.56269e-05
-0.00567024
-0.00196342
-0.00336027
-0.00337556
-0.00104225
-0.00329752
-0.0013634
-0.00133946
0.0024184
-0.00383169
0.00484305
-0.00654627
0.00547257
-0.00888246
0.00477659
-0.0103212
0.00290607
-0.0103755
-4.12865e-05
-0.0087119
-0.00362704
-0.00549773
-0.00658973
-0.00187358
-0.00692166
-0.00323698
-0.00176361
0.00418201
-0.0049042
0.00798364
-0.00826303
0.0088314
-0.0112065
0.00772002
-0.0132093
0.00490888
-0.0136891
0.000438528
-0.0120893
-0.0052268
-0.00821093
-0.0104681
-0.00309561
-0.012037
-0.00633259
-0.0021136
0.00629561
-0.00568808
0.0115581
-0.00943962
0.0125829
-0.0127921
0.0110725
-0.0153145
0.00743119
-0.0164288
0.00155282
-0.0153699
-0.00628562
-0.0113877
-0.0144504
-0.00489259
-0.018532
-0.0112252
-0.0023869
0.00868251
-0.00603543
0.0152067
-0.00963482
0.0161823
-0.0127981
0.0142359
-0.0153625
0.00999554
-0.016984
0.00317438
-0.0169093
-0.00636036
-0.0138437
-0.017516
-0.00694832
-0.0254274
-0.0181735
-0.00263038
0.0113129
-0.00581902
0.0183953
-0.00825706
0.0186204
-0.0100481
0.0160269
-0.0115718
0.0115192
-0.0130404
0.00464304
-0.0140943
-0.00530653
-0.0132269
-0.0183834
-0.00802715
-0.0306271
-0.0262007
-0.00319724
0.0145101
-0.0051231
0.0203212
-0.00456457
0.0180619
-0.00311195
0.0145743
-0.00199619
0.0104035
-0.00209557
0.00474243
-0.00386521
-0.00353689
-0.00634648
-0.0159022
-0.00609947
-0.0308741
-0.0323001
-0.00536619
0.0198763
-0.00112206
0.016077
0.00623533
0.0107045
0.0129081
0.0079015
0.0178077
0.00550387
0.019914
0.00263609
0.0179747
-0.00159754
0.011491
-0.00941848
0.00246584
-0.0218489
-0.0298343
0.0198763
0.0359534
0.0466578
0.0545593
0.0600632
0.0626993
0.0611017
0.0516832
0.0298343
)
;

boundaryField
{
    movingWall
    {
        type            calculated;
        value           uniform 0;
    }
    fixedWalls
    {
        type            calculated;
        value           uniform 0;
    }
    frontAndBack
    {
        type            empty;
    }
}


// ************************************************************************* //
