/*--------------------------------*- C++ -*----------------------------------*\
  =========                 |
  \\      /  F ield         | OpenFOAM: The Open Source CFD Toolbox
   \\    /   O peration     | Website:  https://openfoam.org
    \\  /    A nd           | Version:  13
     \\/     M anipulation  |
\*---------------------------------------------------------------------------*/
FoamFile
{
    format      ascii;
    class       surfaceScalarField;
    location    "7";
    object      phi;
}
// * * * * * * * * * * * * * * * * * * * * * * * * * * * * * * * * * * * * * //

dimensions      [0 3 -1 0 0 0 0];

internalField   nonuniform List<scalar> 
760
(
-2.003804415e-06
2.003946514e-06
-3.901474177e-05
3.701082583e-05
-0.0001087835928
6.976852906e-05
-0.000198872517
9.008874866e-05
-0.0002974460455
9.857358141e-05
-0.0003949401836
9.749419213e-05
-0.0004837998063
8.885957695e-05
-0.0005577062205
7.390651299e-05
-0.0006110225836
5.331624203e-05
-0.0006386901614
2.766733353e-05
-0.000636608928
-2.080790755e-06
-0.0006024151696
-3.419382925e-05
-0.0005365439526
-6.587074866e-05
-0.0004432598519
-9.328294128e-05
-0.000331392853
-0.0001118671782
-0.0002143285542
-0.0001170653117
-0.0001088429969
-0.000105485255
-3.231388982e-05
-7.652811222e-05
2.360651872e-06
-3.467417324e-05
2.360906007e-06
-3.810461641e-05
4.010846909e-05
-0.0001544391974
0.0001533448421
-0.0003374801847
0.0002528088019
-0.0005621476291
0.0003147559574
-0.0008037082012
0.0003401345246
-0.001040771845
0.0003345587707
-0.001255403849
0.0003034914884
-0.001432234058
0.0002507364438
-0.001557719959
0.0001788027249
-0.001620137917
9.008500124e-05
-0.001610481299
-1.173558341e-05
-0.001524179715
-0.0001204936552
-0.001363302434
-0.0002267482216
-0.001138684096
-0.0003179013003
-0.00087118971
-0.0003793603718
-0.000591160652
-0.0003970936918
-0.0003351406601
-0.0003615054816
-0.0001393364553
-0.00027233351
-2.993501873e-05
-0.0001440759947
-2.757294602e-05
-7.743660692e-05
0.0001175447503
-0.0002746362605
0.0003505438245
-0.000558228735
0.0005364011048
-0.0008930501252
0.0006495778485
-0.001246180516
0.0006932650176
-0.001588970859
0.0006773499739
-0.001896997835
0.0006115190391
-0.002149179884
0.0005029180602
-0.002327061557
0.0003566856063
-0.002414903718
0.0001779284178
-0.002400803373
-2.583456913e-05
-0.002278804537
-0.0002424911537
-0.002051609586
-0.0004539420156
-0.00173332691
-0.0006361840604
-0.001351241636
-0.0007614461212
-0.0009453890849
-0.0008029456514
-0.0005646547063
-0.0007422372411
-0.0002587573234
-0.0005782283971
-6.688645106e-05
-0.0003359505097
-9.445930263e-05
-0.0001114268378
0.000228971334
-0.0003817554954
0.0006208720825
-0.0007557284041
0.0009103738998
-0.00118671473
0.001080564894
-0.001634792112
0.001141342701
-0.002066365885
0.001108924327
-0.002453035277
0.0009981899828
-0.002770193178
0.0008200770178
-0.002996055089
0.0005825480516
-0.003111646406
0.0002935213446
-0.003101992139
-3.548644968e-05
-0.002958519873
-0.0003859634125
-0.002682350796
-0.0007301117636
-0.002287976981
-0.001030557356
-0.001806181684
-0.001243239912
-0.001284621195
-0.001324505807
-0.0007842106811
-0.001242647547
-0.0003702122709
-0.0009922251076
-9.927601422e-05
-0.0006068884167
-0.0001937359638
-0.0001408558981
0.0003698270961
-0.000477359381
0.0009573752485
-0.0009342246939
0.0013672392
-0.001453427918
0.001599769022
-0.001988553759
0.001676469688
-0.002502293397
0.001622664573
-0.002963800588
0.001459698296
-0.003346297555
0.001202576757
-0.003625477062
0.000861728943
-0.003779108569
0.0004471525257
-0.00378810159
-2.649277514e-05
-0.003639184835
-0.0005348794648
-0.003328938565
-0.001040357581
-0.002868964161
-0.001490531473
-0.002290897185
-0.001821306413
-0.001649244025
-0.001966159979
-0.001019125874
-0.001872766874
-0.00048645565
-0.001524896511
-0.0001311037928
-0.0009622399201
-0.0003248406191
-0.0001678486355
0.0005376757602
-0.0005663725019
0.001355898863
-0.001102010919
0.001902877328
-0.001705890143
0.002203648698
-0.002325683835
0.002296265047
-0.002921322548
0.002218305234
-0.00346066012
0.001999036532
-0.003915740394
0.001657658356
-0.004260225464
0.001206215184
-0.004468327657
0.0006552544846
-0.004515444853
2.062350659e-05
-0.004381130877
-0.0006691938993
-0.004053765118
-0.001367722158
-0.00353788133
-0.00200641352
-0.002862333871
-0.002496853712
-0.002087104501
-0.002741390343
-0.001304197163
-0.002655674707
-0.0006273915581
-0.002201703049
-0.000169005655
-0.001420625792
-0.0004938463383
-0.0001944981123
0.0007321737427
-0.0006538305361
0.00181523082
-0.001267118396
0.002516164685
-0.001955039134
0.002891569766
-0.002660039686
0.00300126669
-0.003340301142
0.002898568528
-0.003963536353
0.002622272132
-0.004501654161
0.002195775779
-0.004926920471
0.001631480715
-0.005209891081
0.0009382249537
-0.005319480826
0.0001302135067
-0.005225305991
-0.0007633680114
-0.004903629817
-0.001689397297
-0.004346464492
-0.00256357688
-0.003574139008
-0.003269179801
-0.002648284425
-0.003667245854
-0.001679047139
-0.003624913055
-0.0008167951889
-0.00306395452
-0.000220854211
-0.00201656849
-0.0007147006554
-0.0002224503701
0.0009546238536
-0.0007436163106
0.002336396092
-0.001435270294
0.003207817813
-0.002207574727
0.003663874117
-0.00299844426
0.003792136423
-0.003765492622
0.003665617389
-0.004477689833
0.003334468427
-0.005108204252
0.002826288908
-0.005629089933
0.002152365132
-0.006007954694
0.001317089901
-0.006206847961
0.0003291073215
-0.006183964105
-0.0007862500777
-0.005899426609
-0.001973934915
-0.005326278374
-0.003136725311
-0.004467776346
-0.004127683199
-0.003378966438
-0.004756056018
-0.002185168491
-0.004818713239
-0.001081662983
-0.004167460764
-0.0002958677469
-0.002802365081
-0.001010569311
-0.0002529836924
0.001207607141
-0.0008383020516
0.002921713504
-0.001609274223
0.00397878883
-0.002464851648
0.004519450559
-0.00333905782
0.004666341787
-0.004190314853
0.004516873863
-0.004990572047
0.004134723575
-0.005716161642
0.003551876502
-0.006340931887
0.002777134218
-0.006831477076
0.001807636399
-0.007144456153
0.000642086188
-0.007226706952
-0.0007039985627
-0.007019891202
-0.002180751084
-0.006471702254
-0.003684915985
-0.005557201772
-0.005042184821
-0.004310522851
-0.006002733968
-0.002860881892
-0.006268354781
-0.001451685328
-0.00557665993
-0.0004052549603
-0.003848795309
-0.00141582387
-0.0002873707404
0.001494977272
-0.0009397231416
0.003574064404
-0.001789454002
0.004828518276
-0.002722880381
0.005452875137
-0.003670747228
0.005614206784
-0.00459388173
0.005440007013
-0.005469260611
0.005010100346
-0.00627881921
0.004361433793
-0.007001170492
0.00349948463
-0.007605438055
0.002411905921
-0.008046741228
0.001083389848
-0.008263728517
-0.0004870127064
-0.008180783899
-0.002263696201
-0.007716252372
-0.004149448147
-0.006805247427
-0.005953189777
-0.005440342747
-0.007367638959
-0.003730500327
-0.007978196289
-0.001956662735
-0.00735049903
-0.0005628583113
-0.005242601622
-0.001978682042
-0.0003275655606
0.001822542163
-0.001050259318
0.004296756228
-0.00197494612
0.005753203819
-0.00297316624
0.006451093563
-0.003973220165
0.006614258635
-0.004940325546
0.006407110699
-0.005858882673
0.005928655753
-0.006719329242
0.005221880706
-0.007508882295
0.004289038652
-0.008204400542
0.003107423841
-0.008766111474
0.00164510099
-0.009131515706
-0.0001216094571
-0.009214737267
-0.002180474227
-0.008906330179
-0.004457853968
-0.008093311169
-0.006766208278
-0.006702769798
-0.008758183792
-0.004783980605
-0.009896988014
-0.002619089264
-0.009515390869
-0.0007853668234
-0.007076326185
-0.002764050702
-0.0003774195344
0.002199961128
-0.001175004246
0.005094339009
-0.002165771379
0.006743969784
-0.003204012711
0.007489333566
-0.004217440614
0.007627685263
-0.005178592935
0.007368262209
-0.006082249114
0.006832311153
-0.006930633022
0.006070263712
-0.007723941641
0.005082349436
-0.008453096079
0.003836577774
-0.009092455734
0.002284459854
-0.009589533559
0.0003754694036
-0.009861666139
-0.001908339469
-0.0097823385
-0.004537180223
-0.009192128493
-0.007356418821
-0.007933265943
-0.01001704753
-0.005944770919
-0.01188548423
-0.003437786718
-0.01202237356
-0.001091081001
-0.009423028398
-0.003855131387
-0.0004448683263
0.002644828971
-0.00132517239
0.005974641735
-0.002365398016
0.007784194349
-0.003401328751
0.008525263141
-0.004364959538
0.008591315863
-0.005241347527
0.008244650294
-0.006039784479
0.007630748511
-0.006777974574
0.006808452284
-0.007473448144
0.005777823016
-0.008137308277
0.004500438694
-0.008766930074
0.002914081657
-0.009337331377
0.0009458710192
-0.009781622778
-0.001464047585
-0.009981552221
-0.004337250931
-0.009748311013
-0.007589661634
-0.008836696043
-0.01092866106
-0.007028522708
-0.01369365781
-0.004357815964
-0.01469308276
-0.001494520714
-0.0122863245
-0.005349653784
-0.0005459604372
0.003190788964
-0.001523002169
0.006951683132
-0.002582452677
0.008843644928
-0.003546036501
0.009488846037
-0.004362213147
0.009407491729
-0.005038544371
0.008920982632
-0.005605271278
0.008197476661
-0.006099823153
0.007303004228
-0.00656058545
0.006238584131
-0.007023202235
0.004963055053
-0.007515408081
0.003406288601
-0.008048200801
0.001478663695
-0.008596131675
-0.0009161186783
-0.009075170622
-0.003858213205
-0.009304276185
-0.007360555649
-0.008978676455
-0.0112542593
-0.007704944836
-0.01496739011
-0.005224992855
-0.01717303532
-0.001990821334
-0.01552049608
-0.007340473098
-0.0007115000929
0.003902288635
-0.001806653555
0.008046836925
-0.002826060945
0.009863053439
-0.00359901063
0.01026179582
-0.004118457771
0.009926938013
-0.004433070312
0.009235595114
-0.004603891377
0.008368299594
-0.00469266222
0.007391775713
-0.004759939864
0.006305861535
-0.004865852435
0.005068968223
-0.005068951085
0.003609389796
-0.005420860851
0.001830574988
-0.005951189703
-0.000385790634
-0.006638839368
-0.003170564527
-0.007361367767
-0.006638025872
-0.00781977155
-0.01079585687
-0.007484995867
-0.01530216575
-0.005733077135
-0.01892494948
-0.002518768304
-0.01873480865
-0.009859241655
-0.0009918600943
0.004894148448
-0.002224314022
0.009279290849
-0.003072574401
0.01071131459
-0.003443127771
0.01063234844
-0.003433581045
0.009917391579
-0.00316426603
0.008966279456
-0.002738893696
0.007942926348
-0.002246194492
0.00689907588
-0.001765201727
0.005824868163
-0.001373677665
0.004677444352
-0.001152441234
0.003388153677
-0.001186430362
0.001864563694
-0.001558704512
-1.351645877e-05
-0.002324930232
-0.002404338488
-0.003469935198
-0.005493020026
-0.00479546746
-0.009470327852
-0.005753599079
-0.01434403741
-0.005385070335
-0.01929347732
-0.00288871685
-0.02123116242
-0.01274795877
-0.001440629368
0.006334777709
-0.002767661857
0.01060632239
-0.003113398341
0.01105705087
-0.002678336953
0.01019728856
-0.001778037851
0.009017092717
-0.0006358343794
0.007824076989
0.0006008728202
0.006706218295
0.001828710608
0.00567123771
0.002962175201
0.004691405514
0.003923388607
0.003716232399
0.004627208072
0.002684332321
0.004975021657
0.001516748863
0.004847776958
0.000113731936
0.004132013851
-0.001688571355
0.002713887344
-0.004074894172
0.0006014023732
-0.007357841846
-0.001836712043
-0.01190592024
-0.003500090695
-0.01763009871
-0.002698833318
-0.02203241841
-0.01544679447
-0.002090364269
0.008425141972
-0.002986275065
0.01150223362
-0.001929715883
0.01000049011
2.974322141e-05
0.008237830117
0.002284721073
0.006762115714
0.004563576532
0.005545223442
0.006731211579
0.004538585223
0.008708598141
0.003693853329
0.01044221552
0.002957791203
0.01188521272
0.002273237275
0.0129695355
0.001600009582
0.01360404286
0.0008822413206
0.01367579564
4.197746555e-05
0.01304102365
-0.001053800368
0.01149546737
-0.002529335651
0.008815567818
-0.004677942579
0.004992776734
-0.008083128056
0.0008047556348
-0.01344207851
-0.001445490532
-0.01978217321
-0.01689228375
-0.002428340618
0.01085348176
9.398294535e-05
0.008979912259
0.004344059761
0.005750411798
0.008441014364
0.004140874091
0.01209433565
0.00310879472
0.01529014355
0.002349416847
0.01803796524
0.001790764144
0.02035851749
0.001373300732
0.02226974692
0.001046562367
0.0237700647
0.0007729217271
0.02484783418
0.0005222422178
0.02547038963
0.0002596887421
0.0255545338
-4.216536591e-05
0.0249290941
-0.0004283646049
0.02336131307
-0.0009615533041
0.0204930532
-0.001809684286
0.01582494854
-0.003415024244
0.009043747274
-0.006660875183
0.001743109022
-0.01248153671
-0.01514917687
0.01085348121
0.01983339322
0.02558380561
0.02972468042
0.03283347594
0.03518289349
0.03697365877
0.038346961
0.03939352388
0.04016644502
0.04068868815
0.04094837819
0.04090621213
0.04047784822
0.03951629835
0.03770661254
0.03429158777
0.02763071242
0.01514917657
)
;

boundaryField
{
    movingWall
    {
        type            calculated;
        value           uniform 0;
    }
    fixedWalls
    {
        type            calculated;
        value           uniform 0;
    }
    frontAndBack
    {
        type            empty;
    }
}


// ************************************************************************* //
