/*--------------------------------*- C++ -*----------------------------------*\
  =========                 |
  \\      /  F ield         | OpenFOAM: The Open Source CFD Toolbox
   \\    /   O peration     | Website:  https://openfoam.org
    \\  /    A nd           | Version:  13
     \\/     M anipulation  |
\*---------------------------------------------------------------------------*/
FoamFile
{
    format      ascii;
    class       surfaceScalarField;
    location    "7";
    object      phi;
}
// * * * * * * * * * * * * * * * * * * * * * * * * * * * * * * * * * * * * * //

dimensions      [0 3 -1 0 0 0 0];

internalField   nonuniform List<scalar> 
760
(
-1.325877256e-05
1.325866768e-05
-6.789484695e-05
5.46360848e-05
-0.0001503828342
8.24879597e-05
-0.0002444302485
9.404719577e-05
-0.0003383509155
9.392057468e-05
-0.0004236933542
8.534234643e-05
-0.0004940984026
7.040502395e-05
-0.0005445025781
5.040411701e-05
-0.0005708650041
2.636248069e-05
-0.0005703346507
-5.302932878e-07
-0.0005416949819
-2.863965817e-05
-0.0004859998126
-5.569506981e-05
-0.0004071299935
-7.886971666e-05
-0.0003121112009
-9.5018781e-05
-0.0002109778547
-0.0001011333222
-0.0001160008123
-9.497689421e-05
-4.013715449e-05
-7.586346178e-05
5.438131979e-06
-4.557519139e-05
1.721624507e-05
-1.177812952e-05
1.721627425e-05
-6.299728392e-05
7.625591884e-05
-0.0002236233467
0.0002152622162
-0.0004473725005
0.00030623737
-0.0006990160424
0.0003456908708
-0.0009505225492
0.0003454271745
-0.001180089844
0.0003149096546
-0.001370641565
0.0002609567959
-0.001508577099
0.0001883395656
-0.001583294869
0.000101080141
-0.001587678687
3.853401508e-06
-0.001518709599
-9.760899764e-05
-0.001379310744
-0.0001950942557
-0.001179241544
-0.000278939223
-0.0009358437167
-0.0003384167917
-0.0006736184637
-0.0003633585893
-0.0004221766294
-0.0003464186177
-0.0002121917668
-0.0002858482388
-6.899890029e-05
-0.0001887680395
-4.863549384e-06
-7.591342366e-05
1.2352706e-05
-0.0001102582683
0.0001865140744
-0.0003717209151
0.0004767245885
-0.0007241926773
0.0006587090945
-0.001117389752
0.0007388879261
-0.001511030051
0.0007390674381
-0.001872897198
0.0006767768007
-0.002177006831
0.0005650665138
-0.002402193429
0.0004135262307
-0.002531655995
0.0002305428282
-0.002553526445
2.572390263e-05
-0.002462386682
-0.0001887487832
-0.002261090944
-0.0003963899899
-0.001962752342
-0.0005772778026
-0.001591839469
-0.0007093296458
-0.001183803626
-0.0007713943886
-0.000782321646
-0.0007479005535
-0.0004334498943
-0.0006347199981
-0.0001766593375
-0.0004455586221
-3.438909268e-05
-0.0002181836446
-2.203644851e-05
-0.0001527597694
0.0003392740419
-0.0005088594954
0.0008328243048
-0.0009842086155
0.00113405822
-0.001513480531
0.001268159886
-0.002045591729
0.001271178691
-0.002539768271
0.001170953343
-0.002962555333
0.0009878535413
-0.003285856808
0.0007368275768
-0.003486315367
0.0004310013404
-0.003546044058
8.545247041e-05
-0.003454628587
-0.0002801644879
-0.003211719121
-0.0006392996752
-0.002830109745
-0.0009588873002
-0.002338005335
-0.001201434071
-0.001779639062
-0.001329760628
-0.00121278968
-0.001314749958
-0.0007019442338
-0.001145565506
-0.0003069260979
-0.0008405767373
-6.9526501e-05
-0.0004555831864
-9.156296946e-05
-0.0001922253637
0.0005314994093
-0.000637956404
0.001278555371
-0.00123222476
0.001728326645
-0.001895654168
0.001931589352
-0.002567750077
0.001943274668
-0.003200730545
0.001803933868
-0.003754874269
0.001541997363
-0.004195542817
0.001177496116
-0.004492062927
0.00072752144
-0.00461844147
0.0002118308638
-0.00455586042
-0.0003427457625
-0.004296228681
-0.0008989315722
-0.003847040683
-0.001408075342
-0.003235805985
-0.001812668739
-0.00251311324
-0.00205245338
-0.00175200832
-0.002075854944
-0.001041193251
-0.001856380586
-0.0004706958194
-0.001411074047
-0.0001126977994
-0.0008135811532
-0.0002042606842
-0.0002289569038
0.0007604563722
-0.0007589829748
0.00180858148
-0.001467247135
0.002436590809
-0.002262444902
0.002726787125
-0.003076577786
0.002757407595
-0.00385662631
0.002583982403
-0.004557964622
0.002243335686
-0.005139959146
0.001759490539
-0.0055639612
0.001151523394
-0.005793692373
0.0004415618471
-0.005798115595
-0.0003383227076
-0.005555975163
-0.001141072035
-0.005063044273
-0.001901006164
-0.004339765518
-0.00253594745
-0.00343862338
-0.002953595554
-0.002447798887
-0.00306667946
-0.001486569205
-0.002817610162
-0.0006880397492
-0.002209603334
-0.0001704046517
-0.0013312162
-0.0003746652417
-0.0002618274096
0.001022283785
-0.000868244326
0.002414998425
-0.001681706831
0.003250053365
-0.002601840334
0.003646920659
-0.003555584797
0.003711152099
-0.004486903061
0.003515300679
-0.005348143892
0.003104576498
-0.006093903314
0.002505249847
-0.006677725912
0.001735345877
-0.007051725341
0.000815561131
-0.00716948887
-0.0002205592554
-0.006991164482
-0.001319396373
-0.006493374098
-0.002398796416
-0.005680610643
-0.003348710856
-0.004598857234
-0.004035348975
-0.003346916474
-0.004318620145
-0.002078368815
-0.004086157632
-0.0009841772649
-0.003303794774
-0.0002512931896
-0.002064100229
-0.0006259584547
-0.0002888668518
0.001311150626
-0.0009590431417
0.00308517469
-0.001862188282
0.004153198538
-0.002891946265
0.004676678651
-0.00397291517
0.004792121025
-0.005048665001
0.004591050546
-0.006071084336
0.004126995828
-0.006992337554
0.003426503006
-0.00775994215
0.002502950406
-0.008315105271
0.00137072424
-0.008595015595
5.935113224e-05
-0.008537485494
-0.00137692636
-0.008092992145
-0.002843289669
-0.007239212108
-0.00420249089
-0.006002115844
-0.005272445219
-0.004478743892
-0.005841991954
-0.002852966041
-0.005711935315
-0.001386390412
-0.004770370417
-0.0003657021972
-0.003084788397
-0.0009916607197
-0.0003077960179
0.001618946641
-0.001023477945
0.003800856588
-0.001992083273
0.005121803914
-0.003104160056
0.005788755437
-0.004284611054
0.005972572058
-0.005479421185
0.005785860766
-0.006643222363
0.005290797037
-0.007729412273
0.004512692925
-0.008683460237
0.003456998315
-0.0094395989
0.002126862938
-0.009920508615
0.0005402609599
-0.01004355434
-0.001253880567
-0.009728152502
-0.003158691537
-0.008914778784
-0.005015864695
-0.007591588468
-0.006595635508
-0.005831137945
-0.007602442382
-0.003829079809
-0.00771399338
-0.001919716838
-0.006679733463
-0.0005255696294
-0.004478935545
-0.001517230276
-0.0003173085151
0.001936255155
-0.001055512679
0.004539060669
-0.002056386983
0.00612267831
-0.003209474804
0.006941843313
-0.00444223345
0.007205330799
-0.005705790316
0.007049417776
-0.00696111155
0.006546118333
-0.008167639183
0.005719220608
-0.009275017413
0.004564376462
-0.01021784254
0.003069688029
-0.01091334694
0.001235765381
-0.01126294611
-0.0009042814537
-0.01115861698
-0.003263020793
-0.01049774012
-0.005676741639
-0.00921255576
-0.00788081975
-0.007319204115
-0.009495793954
-0.004986435107
-0.01004676232
-0.00259884032
-0.009067328266
-0.0007439427922
-0.006333833008
-0.002261172943
-0.0003188384461
0.002255093662
-0.001055299665
0.0052755218
-0.002048591026
0.007115969807
-0.003187975499
0.008081227904
-0.004405309695
0.008422665108
-0.005659500839
0.008303608991
-0.006921599972
0.007808217435
-0.008162570022
0.006960190605
-0.009344040841
0.005745847182
-0.01041144607
0.004137093181
-0.01128900532
0.002113324573
-0.01187600379
-0.0003172830467
-0.01204895848
-0.003090066124
-0.01166597075
-0.006059729242
-0.0105927402
-0.008954050068
-0.00875535607
-0.01133317802
-0.006237784461
-0.01256433382
-0.003413879764
-0.01189123291
-0.001033210965
-0.008714501755
-0.003294383852
-0.0003189912466
0.00257408499
-0.001034639574
0.005991170037
-0.001979027818
0.008060358125
-0.003040288027
0.009142488189
-0.004156826665
0.009539203803
-0.005298465497
0.009445247762
-0.00645028484
0.008960036677
-0.007600200265
0.008110105874
-0.008729711914
0.006875358797
-0.009806310342
0.005213691659
-0.01077625629
0.003083270554
-0.01155615654
0.0004626172261
-0.01202669318
-0.002619529437
-0.01202568249
-0.006060739811
-0.01135818576
-0.009621546789
-0.009838882799
-0.01285248113
-0.007402835932
-0.01500038063
-0.004309642923
-0.01498442578
-0.001400853805
-0.01162329099
-0.004695237714
-0.0003330412542
0.002907126323
-0.001023417778
0.00668154643
-0.001883272397
0.008920212699
-0.002798035337
0.01005725107
-0.003717072145
0.01045824062
-0.004626262411
0.01035443795
-0.005529460799
0.009863235041
-0.006436401291
0.009017046261
-0.007354601435
0.007793558917
-0.008282378519
0.006141468743
-0.009200950551
0.004001842517
-0.0100641686
0.001325835222
-0.0107810538
-0.001902644172
-0.01120146396
-0.005640329588
-0.01109919411
-0.009723816735
-0.0101851954
-0.01376647983
-0.008200532866
-0.01698504301
-0.005162426667
-0.01802253195
-0.001841116714
-0.01494460089
-0.006536354218
-0.0003902335747
0.003297359935
-0.001076637888
0.007367950568
-0.001828007355
0.009671582104
-0.002528047011
0.01075729063
-0.003147438661
0.01107763223
-0.003697614474
0.01090461371
-0.004207794375
0.01037341488
-0.004713733724
0.009522985519
-0.005252108874
0.008331934066
-0.005855582087
0.006744941993
-0.00654669315
0.004692953578
-0.007327503566
0.002106645617
-0.00816069035
-0.001069457419
-0.008943824285
-0.00485719573
-0.009470723424
-0.009196917619
-0.009397009391
-0.01384019383
-0.0082734309
-0.01810862123
-0.005764413335
-0.0205315495
-0.00232195957
-0.01838705455
-0.00885831393
-0.0005427850717
0.003840144957
-0.001280372799
0.008105538109
-0.001907522992
0.01029873232
-0.002318674499
0.01116844211
-0.002528202201
0.0112871598
-0.002589380168
0.0109657916
-0.002565840724
0.01034987538
-0.002522772008
0.009479916806
-0.002525868722
0.008335030736
-0.002639654695
0.00685872788
-0.002925648362
0.004978947132
-0.003435313906
0.002616311137
-0.004196071398
-0.0003086999025
-0.005182652823
-0.003870614231
-0.006269633828
-0.008109936459
-0.007142383642
-0.01296744388
-0.007235244865
-0.01801576012
-0.005821673445
-0.02194512072
-0.002762901539
-0.02144582651
-0.01162121532
-0.000874808554
0.004714953461
-0.001742638636
0.008973368044
-0.002205476521
0.01076157021
-0.002214093121
0.01117705868
-0.001870077285
0.01094314392
-0.001293155742
0.01038886995
-0.0005919786832
0.00964869818
0.0001367800663
0.008751157966
0.0008033038546
0.00766850693
0.001316851963
0.006345179758
0.001585852713
0.004709946373
0.001518009047
0.002684154901
0.001025624584
0.0001836846572
4.585086766e-05
-0.002890840599
-0.00141186608
-0.00665221937
-0.003171636641
-0.01120767348
-0.004700576576
-0.01648682013
-0.004944626619
-0.02170107027
-0.002984204331
-0.02340624883
-0.01460541961
-0.001501155271
0.006216108758
-0.00249864364
0.009970856286
-0.002603204835
0.0108661314
-0.001952777861
0.0105266317
-0.0008105650583
0.009800931042
0.0006103958843
0.008967908852
0.002153277683
0.008105816246
0.003696361839
0.007208073781
0.005133367366
0.006231501444
0.006360875765
0.005117671364
0.00726977433
0.003801047748
0.007741349455
0.002212579895
0.007644151167
0.0002808829396
0.006848239064
-0.002094928574
0.005230898844
-0.005034878855
0.002783663919
-0.008760438575
-0.0001440535291
-0.01355910301
-0.002577713207
-0.01926741045
-0.002647907272
-0.02333605486
-0.01725332674
-0.002379672923
0.008595781712
-0.003028576701
0.01061976007
-0.002069583742
0.00990713842
-0.0001638273946
0.008620875322
0.002189979471
0.007447124096
0.004707546315
0.006450341906
0.00722100281
0.00559235969
0.009617448067
0.004811628491
0.01180311856
0.004045830911
0.01368356074
0.003237229081
0.01515258839
0.002332020092
0.01608587187
0.001279296501
0.01632730935
3.944559048e-05
0.01572182039
-0.001489439719
0.01405858858
-0.003371646833
0.01113839039
-0.00584024051
0.006911800736
-0.009332512936
0.002106725458
-0.01446233529
-0.001068246715
-0.02016108274
-0.01832157355
-0.002140650283
0.01073643205
-7.163741955e-05
0.008550747206
0.003705325391
0.006130175575
0.007620783817
0.004705416812
0.01138793635
0.003679971487
0.01489271205
0.002945566152
0.01808822506
0.002396846614
0.020948926
0.001950927551
0.02344242691
0.001552329981
0.02551748388
0.001162172123
0.02709822306
0.0007512810513
0.02807883699
0.0002986826969
0.02834416703
-0.000225884568
0.02771194974
-0.0008572222997
0.02597272244
-0.001632419456
0.02281952589
-0.002687044238
0.01784524886
-0.004358235996
0.01072504992
-0.007342136124
0.002894011097
-0.01233004378
-0.01542756269
0.01073643208
0.01928717934
0.02541735492
0.03012277174
0.03380274314
0.03674830918
0.03914515572
0.04109608325
0.04264841312
0.04381058534
0.04456186629
0.04486054913
0.04463466445
0.04377744216
0.0421450228
0.03945797861
0.03509974239
0.02775760637
0.01542756263
)
;

boundaryField
{
    movingWall
    {
        type            calculated;
        value           uniform 0;
    }
    fixedWalls
    {
        type            calculated;
        value           uniform 0;
    }
    frontAndBack
    {
        type            empty;
    }
}


// ************************************************************************* //
