/*--------------------------------*- C++ -*----------------------------------*\
  =========                 |
  \\      /  F ield         | OpenFOAM: The Open Source CFD Toolbox
   \\    /   O peration     | Website:  https://openfoam.org
    \\  /    A nd           | Version:  13
     \\/     M anipulation  |
\*---------------------------------------------------------------------------*/
FoamFile
{
    format      ascii;
    class       surfaceScalarField;
    location    "7";
    object      phi_0;
}
// * * * * * * * * * * * * * * * * * * * * * * * * * * * * * * * * * * * * * //

dimensions      [0 3 -1 0 0 0 0];

internalField   nonuniform List<scalar> 
760
(
-2.580483143e-06
2.579872685e-06
-4.012336239e-05
3.754302318e-05
-0.0001092533581
6.913048818e-05
-0.0001974531858
8.820023352e-05
-0.000292935561
9.548251e-05
-0.0003863686923
9.34332772e-05
-0.0004706314341
8.426295311e-05
-0.0005400244746
6.939274156e-05
-0.0005896566844
4.963232302e-05
-0.0006152487671
2.559254489e-05
-0.000613368287
-1.880480905e-06
-0.0005819815699
-3.138547083e-05
-0.0005213511935
-6.063065848e-05
-0.000434906127
-8.644648443e-05
-0.000330043501
-0.0001048621447
-0.0002184492277
-0.0001115934359
-0.0001154993353
-0.0001029505386
-3.812727019e-05
-7.737243176e-05
-1.901887136e-07
-3.793700128e-05
-1.911183275e-07
-3.869514391e-05
4.127520069e-05
-0.0001534820361
0.0001523308361
-0.0003320069955
0.0002476564596
-0.0005491057123
0.0003052996295
-0.0007803444173
0.0003267211726
-0.001005107924
0.000318195758
-0.001206706703
0.0002858625067
-0.001371387688
0.0002340740146
-0.001487421237
0.0001656661089
-0.001544847229
8.302160559e-05
-0.001536048413
-1.067983081e-05
-0.001457058739
-0.0001103747902
-0.001309362088
-0.0002083254068
-0.001101848764
-0.0002939608113
-0.0008522345006
-0.0003544784365
-0.0005872023721
-0.0003766246006
-0.0003402850591
-0.0003498658699
-0.0001465751451
-0.0002710802401
-3.391857659e-05
-0.0001505923075
-3.41125702e-05
-7.636509368e-05
0.0001176407816
-0.0002680848852
0.0003440513806
-0.0005418596928
0.0005214309599
-0.0008626278542
0.0006260673598
-0.001197977264
0.0006620711232
-0.001520447283
0.0006406647611
-0.001807460408
0.0005728764518
-0.002040281867
0.0004668980151
-0.002203056942
0.0003284416646
-0.002282551843
0.0001625193331
-0.00226884829
-2.438176902e-05
-0.002156915418
-0.0002223088049
-0.001948830238
-0.0004164118178
-0.001656230827
-0.0005865580491
-0.001302235713
-0.0007084704046
-0.0009217983942
-0.0007570627072
-0.0005592361172
-0.0007124338721
-0.0002619218007
-0.0005683972587
-7.016075807e-05
-0.000342348128
-0.0001042743096
-0.0001082062632
0.0002258472962
-0.0003681777297
0.0006040224793
-0.0007259591604
0.0008792110572
-0.001135431987
0.001035538994
-0.001557525275
0.001084165558
-0.001960210968
0.001043351579
-0.002317398431
0.0009300645864
-0.002607371366
0.000756873384
-0.002811559792
0.0005326321373
-0.002914163435
0.0002651229209
-0.002902853242
-3.569251387e-05
-0.002770557815
-0.000354602152
-0.002518148033
-0.0006688201895
-0.002157621458
-0.0009470842448
-0.001714966347
-0.001151125342
-0.001231408396
-0.001240620949
-0.000761359451
-0.00118248423
-0.0003657143593
-0.0009640470815
-0.0001008907528
-0.0006071709145
-0.0002051643231
-0.0001352976207
0.0003611446357
-0.0004562329045
0.0009249564516
-0.000890158343
0.001313135001
-0.001380084405
0.001525464261
-0.001880752492
0.001584834952
-0.002356663558
0.001519265804
-0.002779560557
0.001352963371
-0.003125929318
0.001103241063
-0.003375180075
0.0007818835267
-0.003508941087
0.0003988854089
-0.003511644724
-3.298984263e-05
-0.003372491272
-0.0004937552143
-0.003088748172
-0.0009525606601
-0.002670101213
-0.001365728403
-0.002143210582
-0.001678016342
-0.001554843434
-0.001828990177
-0.0009711338508
-0.001766193023
-0.0004705347499
-0.001464646848
-0.0001301209847
-0.0009475855962
-0.0003352837511
-0.0001602217854
0.0005213656767
-0.0005384990325
0.001303232116
-0.001045135668
0.001819771175
-0.001612669556
0.002092998958
-0.002190052169
0.002162218665
-0.002739059363
0.002068274326
-0.003230191127
0.001844097378
-0.003638941505
0.001511989596
-0.003943098527
0.001086037674
-0.004121449106
0.0005772362794
-0.004154057079
-3.797494185e-07
-0.004024329176
-0.0006234807881
-0.003722984308
-0.001253904694
-0.003254009421
-0.001834704565
-0.002641805961
-0.002290222248
-0.001937594781
-0.002533203181
-0.001221428019
-0.002482360552
-0.000595198539
-0.002090875103
-0.0001641492294
-0.001378634608
-0.0004994323677
-0.0001855320746
0.0007068970588
-0.0006214080993
0.001739106947
-0.001201430893
0.002399794035
-0.001847720916
0.002739290479
-0.002503837466
0.002818337047
-0.003129589342
0.002694025227
-0.00369515514
0.002409662876
-0.004175868977
0.001992701934
-0.004548394415
0.001458561053
-0.004788578834
0.0008174197893
-0.004871125626
8.216786229e-05
-0.004771537193
-0.0007230678672
-0.004470575382
-0.001554865858
-0.003962064308
-0.002343219542
-0.003263504069
-0.002988786295
-0.002427577652
-0.003369129609
-0.001549468416
-0.003360470429
-0.0007618406938
-0.002878502188
-0.0002102747484
-0.001930198046
-0.0007097065955
-0.0002133039905
0.0009202005103
-0.0007101557301
0.00223595799
-0.001367142559
0.003056781036
-0.002095427678
0.003467576473
-0.002833551263
0.00355646221
-0.003540280286
0.003400752876
-0.004186635994
0.003056017057
-0.004748954174
0.002555018128
-0.005203728845
0.00191333469
-0.005524367162
0.001138057582
-0.005679923313
0.0002377238871
-0.005636324685
-0.0007666694297
-0.005360973975
-0.001830217386
-0.004831987231
-0.002872207743
-0.004052865522
-0.003767909208
-0.003071169612
-0.004350825279
-0.001995207828
-0.004436430416
-0.0009958421335
-0.0038778658
-0.0002770529184
-0.002648984514
-0.0009867581754
-0.0002452239108
0.001165424095
-0.0008085347923
0.002799268012
-0.001547315712
0.003795561769
-0.002360553922
0.004280815164
-0.003182123065
0.004378032026
-0.003970921732
0.00418955004
-0.004700340512
0.003785435004
-0.005349383484
0.003204059654
-0.005896068793
0.002460018796
-0.006312905191
0.001554891283
-0.006564287206
0.0004891060203
-0.006606281748
-0.0007246770604
-0.006390463997
-0.002046036581
-0.005873377338
-0.003389292571
-0.00503489674
-0.004606387859
-0.003905644802
-0.005480080617
-0.002598427846
-0.00574364756
-0.001326213155
-0.005150078549
-0.0003751319921
-0.003600064925
-0.001361890408
-0.0002829585128
0.001448382413
-0.0009194756457
0.00343578418
-0.001744303153
0.004620388691
-0.002642336144
0.005178848771
-0.003543197835
0.005278894109
-0.004407418007
0.005053768427
-0.005212694418
0.004590711024
-0.005942934245
0.003934298822
-0.006580273965
0.003097358471
-0.007099254617
0.002073868163
-0.00746253303
0.0008523821754
-0.007618531353
-0.0005686771845
-0.007503084852
-0.002161482647
-0.007046778139
-0.003845599022
-0.006195002272
-0.005458163431
-0.004943698067
-0.006731388568
-0.00339068362
-0.007296663162
-0.001784269447
-0.006756491384
-0.0005181401926
-0.004866191418
-0.001880030341
-0.0003287745183
0.001777156567
-0.001046101651
0.004153110294
-0.001958655844
0.005532941366
-0.002934706193
0.006154899139
-0.003900388907
0.006244577408
-0.004819877956
0.005973256778
-0.005677580074
0.005448414063
-0.00646508412
0.004721802654
-0.007172122353
0.003804395059
-0.007779721708
0.00268146618
-0.00825422853
0.001326886275
-0.008541866187
-0.0002810368509
-0.008567630324
-0.00213571433
-0.008236028899
-0.004177200601
-0.007449243315
-0.006244951822
-0.006146733501
-0.008033898089
-0.004377820204
-0.009065575204
-0.002397901953
-0.00873640882
-0.0007231639483
-0.006540926859
-0.002603192771
-0.0003865694091
0.002163725507
-0.001193379032
0.004959918849
-0.002190288197
0.006529848353
-0.003226228752
0.007190839376
-0.004225736781
0.007244086434
-0.005159680548
0.006907200943
-0.006022252829
0.006310987292
-0.006816014922
0.005515566132
-0.007542441904
0.004530819175
-0.008194743406
0.003333768481
-0.008750789283
0.001882934394
-0.009163309663
0.0001314846976
-0.009358155655
-0.001940869365
-0.009220909592
-0.004314450886
-0.00860954929
-0.006856316278
-0.007387365634
-0.009256079239
-0.005509433204
-0.01094350658
-0.003177410296
-0.01106843399
-0.001009974562
-0.008708366648
-0.003613169168
-0.0004637131851
0.002627438117
-0.001370643539
0.005866847817
-0.00243954884
0.007598751985
-0.003498682495
0.008249973431
-0.004475877792
0.008221282063
-0.005354032313
0.007785354434
-0.00614147483
0.00709842985
-0.006855617425
0.006229711222
-0.007514037637
0.00518924029
-0.008127985277
0.003947716822
-0.008695200749
0.002450152213
-0.009189621211
0.0006259071891
-0.009550027628
-0.001580463534
-0.009663503611
-0.004200976173
-0.009356341671
-0.007163477225
-0.008408892766
-0.01020352763
-0.006635230739
-0.01271716935
-0.004087377243
-0.01361628892
-0.001396641097
-0.01139910509
-0.005009808695
-0.0005745183434
0.003201955827
-0.00159526933
0.00688759723
-0.002706908267
0.008710389214
-0.003721481674
0.009264546852
-0.004582196871
0.009081997989
-0.005294096323
0.008497251841
-0.005886414494
0.00769074664
-0.006396037666
0.00673933576
-0.006860472595
0.005653677462
-0.007313460136
0.00440070673
-0.007779522411
0.002916215375
-0.00826570242
0.00111208762
-0.008741979528
-0.001104185654
-0.009123901699
-0.003819052331
-0.00923714758
-0.007050229596
-0.00879876566
-0.01064191517
-0.007456569987
-0.0140593683
-0.004999954822
-0.01607290514
-0.001885606318
-0.01451345428
-0.006895417452
-0.0007461897184
0.00394814525
-0.00189633365
0.008037739624
-0.002986301259
0.009800353816
-0.003833647272
0.01011189159
-0.004424885827
0.009673236583
-0.004806189276
0.008878556086
-0.0050381104
0.007922664313
-0.005182059198
0.006883283721
-0.005297303277
0.005768923449
-0.005440558005
0.004543962673
-0.005664538494
0.003140194534
-0.006013725994
0.001461273855
-0.006506314652
-0.0006115948278
-0.007113489538
-0.003211874066
-0.007707729321
-0.006455989092
-0.007998653748
-0.01035099123
-0.007493246266
-0.01456477661
-0.005632697997
-0.01793345939
-0.002428133448
-0.01771801456
-0.009323551818
-0.00102346696
0.004971612218
-0.002309164844
0.009323436469
-0.003232114345
0.01072330138
-0.003685859222
0.0105656372
-0.00376139169
0.009748768697
-0.003577719053
0.008694883783
-0.003239297246
0.007584244008
-0.002834652986
0.006478641471
-0.002441299879
0.005375573008
-0.002132049984
0.004234713742
-0.001979906417
0.002988049624
-0.002060120168
0.001541487109
-0.002442372884
-0.0002293395941
-0.003170561637
-0.002483683821
-0.004214538539
-0.005412015796
-0.005365734228
-0.009199791364
-0.006091544624
-0.01383896341
-0.005489821309
-0.01853518607
-0.002849703811
-0.02035813697
-0.01217325497
-0.00145411772
0.006425729956
-0.002814904338
0.01068422367
-0.003216188645
0.01112458602
-0.002847547055
0.01019699422
-0.002022927415
0.008924148202
-0.0009671118053
0.007639066112
0.0001707442328
0.006446388881
0.001287759747
0.005361627949
0.002303550869
0.004359781099
0.003146160224
0.003392102428
0.003741083359
0.002393127632
0.004000789767
0.001281784743
0.003821376781
-4.992691884e-05
0.003093035997
-0.001755348314
0.001720652294
-0.004039634296
-0.0002666593094
-0.007212476578
-0.002480872223
-0.01162475723
-0.003845208493
-0.01717085076
-0.002750828483
-0.0214525208
-0.01492407978
-0.002068509934
0.008494239844
-0.002975420083
0.01159113552
-0.001925933695
0.01007510079
1.159327115e-05
0.008259466331
0.002222495501
0.006713246763
0.00442811355
0.005433448687
0.006495120434
0.004379383368
0.008350611078
0.003506137099
0.00994843929
0.002761950539
0.01124810533
0.002092435193
0.01220078274
0.001440453251
0.0127284537
0.0007541178071
0.01272605966
-4.753159515e-05
0.0120508734
-0.001080160603
0.01049985587
-0.002488614199
0.007874049937
-0.004586669605
0.004193805718
-0.007944512032
0.0002772532402
-0.01325429843
-0.001589634424
-0.01958563064
-0.01651371791
-0.002407004064
0.01090124589
0.0001451325598
0.009038997974
0.0044623917
0.005757845826
0.008588633364
0.00413322701
0.01222500173
0.003076879895
0.01536032056
0.002298130966
0.01801294084
0.00172676359
0.02021566664
0.001303412518
0.02199988182
0.000977736166
0.02338158175
0.0007107327902
0.02435095293
0.0004710793722
0.02487412312
0.0002309462452
0.02487191433
-4.532325619e-05
0.02419226761
-0.0004005096749
0.02260458358
-0.000900925513
0.0197350731
-0.001717157667
0.01509457724
-0.003304014085
0.00842830083
-0.006588023738
0.001416871389
-0.01257419996
-0.01509684326
0.01090124754
0.01994024626
0.02569809145
0.02983131859
0.03290819845
0.03520632879
0.03693309156
0.03823650332
0.03921423883
0.03992497238
0.04039605284
0.0406269969
0.04058167438
0.04018116739
0.03928023411
0.03756307949
0.03425906706
0.02767104393
0.01509684318
)
;

boundaryField
{
    movingWall
    {
        type            calculated;
        value           uniform 0;
    }
    fixedWalls
    {
        type            calculated;
        value           uniform 0;
    }
    frontAndBack
    {
        type            empty;
    }
}


// ************************************************************************* //
