/*--------------------------------*- C++ -*----------------------------------*\
  =========                 |
  \\      /  F ield         | OpenFOAM: The Open Source CFD Toolbox
   \\    /   O peration     | Website:  https://openfoam.org
    \\  /    A nd           | Version:  13
     \\/     M anipulation  |
\*---------------------------------------------------------------------------*/
FoamFile
{
    format      ascii;
    class       volVectorField;
    location    "7";
    object      U;
}
// * * * * * * * * * * * * * * * * * * * * * * * * * * * * * * * * * * * * * //

dimensions      [0 1 -1 0 0 0 0];

internalField   nonuniform List<vector> 
400
(
(-1.1813608e-06 -1.723954145e-05 0)
(-0.0006449923882 0.0003968937676 -1.347028414e-23)
(-0.002039831038 0.0008545719186 0)
(-0.00373980951 0.001206870151 0)
(-0.005492055172 0.001405665697 4.595334815e-25)
(-0.007126261245 0.001435765428 3.914672052e-24)
(-0.008523720353 0.001303074498 8.250320986e-25)
(-0.009595969123 0.001028188074 1.642394689e-23)
(-0.0102718713 0.0006439060673 -2.890633288e-25)
(-0.01049565991 0.0001939775665 -5.262410619e-24)
(-0.0102317451 -0.000269693188 7.292686217e-24)
(-0.009474546831 -0.0006882148549 -7.231094041e-23)
(-0.008260291299 -0.001003879372 -8.072208955e-23)
(-0.006676507873 -0.001168085287 -9.502898484e-23)
(-0.004867094606 -0.001152143234 5.796449402e-24)
(-0.003028742873 -0.0009578952349 -5.5668419e-24)
(-0.001393817148 -0.0006253554953 -3.068016071e-22)
(-0.0002118649736 -0.0002309233006 0)
(0.0003815494585 0.0001017809051 6.798826877e-25)
(0.0001873924865 0.000255618177 -7.22965194e-23)
(-0.0002419917905 0.0007955112824 1.199259319e-25)
(-0.002468970983 0.003114238039 1.356362069e-23)
(-0.006269253492 0.005103390851 1.273504585e-25)
(-0.01082178539 0.006357818217 -5.814389483e-25)
(-0.01550111863 0.006848883483 7.200882687e-25)
(-0.01988660837 0.006625891179 5.9390123e-24)
(-0.02366144521 0.005769754789 8.727212006e-24)
(-0.02658350559 0.004380754359 -1.596353725e-23)
(-0.0284616633 0.002582303418 1.504180493e-23)
(-0.02915259981 0.0005280792677 5.968691093e-24)
(-0.02856820412 -0.001594017253 -7.944776831e-24)
(-0.02669815417 -0.00356744322 2.123031099e-24)
(-0.02363751833 -0.005161216259 4.612645883e-23)
(-0.01960534642 -0.006158196613 -2.587731383e-24)
(-0.01495597768 -0.006393613361 5.126574865e-24)
(-0.01016759327 -0.005800086043 -1.514307252e-22)
(-0.005798751006 -0.004451605195 1.532516216e-22)
(-0.002418662522 -0.002600912658 -1.439230417e-24)
(-0.0003496478827 -0.0007118287786 1.475517195e-24)
(4.841922235e-05 0.000450924229 0)
(-0.0003708963732 0.002695130155 -2.432522013e-25)
(-0.00416282526 0.007975517579 1.238866714e-23)
(-0.01017956335 0.01193778516 -8.399166519e-24)
(-0.0173051241 0.01422050532 -1.163736999e-25)
(-0.02462034595 0.0149009888 1.143244054e-25)
(-0.03151637576 0.01415043169 2.0445052e-25)
(-0.03751551934 0.01216319207 -8.301074171e-24)
(-0.04224153635 0.009144041392 -9.515248622e-25)
(-0.04539166204 0.005324962452 -1.575567062e-23)
(-0.04673160812 0.0009880205977 0)
(-0.04611144222 -0.003517247069 0)
(-0.04349514165 -0.0077782168 3.450319297e-23)
(-0.03899821206 -0.0113366512 3.646516487e-23)
(-0.03292221643 -0.01373798568 -2.335591005e-24)
(-0.02577281962 -0.01460382367 7.402449633e-23)
(-0.01824760389 -0.01372540872 1.46639071e-22)
(-0.01117541149 -0.01116583147 1.02683423e-22)
(-0.005403044381 -0.007354394698 2.544112346e-24)
(-0.001514453225 -0.003153809838 -1.023084581e-24)
(-9.864961022e-05 -6.289231628e-06 0)
(-0.0004369095918 0.005464160038 -3.164466666e-23)
(-0.005680349296 0.014706793 -1.225105335e-23)
(-0.01380711422 0.02112533477 8.29853623e-24)
(-0.02339461036 0.02461492259 0)
(-0.03325601192 0.0254602451 0)
(-0.04262783798 0.02400721631 0)
(-0.05090126433 0.02058975344 -3.196171647e-25)
(-0.05758353112 0.01552811285 3.792289795e-24)
(-0.06226160458 0.009167363607 0)
(-0.0645953251 0.001924356539 3.623209218e-24)
(-0.06433825284 -0.005676149805 4.130779602e-25)
(-0.06137705568 -0.01299102405 -4.142346887e-25)
(-0.05578549601 -0.01927936223 0)
(-0.04788086686 -0.02376912221 6.612702947e-23)
(-0.03826416296 -0.02576978609 -7.169615564e-23)
(-0.0278252556 -0.02483181637 -5.963544613e-23)
(-0.01768322962 -0.02093491874 -1.03619663e-22)
(-0.009041157085 -0.01466814016 6.907536604e-25)
(-0.002887468664 -0.007342086877 1.392856341e-23)
(-0.0002204234455 -0.001105278296 0)
(-0.0004602539667 0.009048897451 3.180520541e-23)
(-0.007069364361 0.02320676505 5.125936628e-25)
(-0.01722130306 0.03257556219 -5.008860636e-25)
(-0.02920865596 0.03748597128 0)
(-0.04160786134 0.03853790667 5.944720546e-25)
(-0.05352688123 0.03630416308 -5.862285995e-25)
(-0.06425122255 0.03127334296 2.466094111e-23)
(-0.07318624337 0.02387449535 4.849545923e-24)
(-0.07980543925 0.01454865732 1.337419957e-24)
(-0.08363774277 0.003830312789 -3.627429146e-24)
(-0.08429133743 -0.007585496517 0)
(-0.08150367478 -0.01880924778 7.989408462e-25)
(-0.07521846692 -0.02876548826 2.432859651e-23)
(-0.06567766721 -0.03627029555 -6.997525616e-23)
(-0.05350521695 -0.04018466308 3.775093113e-24)
(-0.03975920983 -0.03965747458 1.082068767e-22)
(-0.02590255171 -0.03443885261 -1.470726824e-24)
(-0.01363879118 -0.02519839437 0)
(-0.004581900239 -0.01371945961 4.59532871e-23)
(-0.0003334408599 -0.002990678644 -1.541860276e-22)
(-0.0004611250571 0.01339687013 9.804608428e-23)
(-0.008344216195 0.03338480934 -5.089248029e-25)
(-0.0204109272 0.0462208004 0)
(-0.03471893888 0.05282126647 0)
(-0.04964666728 0.05420745974 -7.645617832e-23)
(-0.06420468192 0.05122932301 -7.064971634e-23)
(-0.07760090283 0.04453695636 -2.731634085e-23)
(-0.08915633746 0.03464520367 -7.401132362e-24)
(-0.09823076192 0.02205074601 -9.987237639e-25)
(-0.1041979659 0.00736060265 -4.341081059e-24)
(-0.1064683365 -0.008595291175 2.223992789e-24)
(-0.1045473717 -0.02468984981 2.755519694e-25)
(-0.09813973598 -0.03947486805 -1.456230488e-23)
(-0.08728963709 -0.05125050434 -3.280409658e-23)
(-0.07253232221 -0.05824772784 0)
(-0.05503353874 -0.05896615605 -5.182811492e-23)
(-0.03663945013 -0.05266363968 1.198833803e-24)
(-0.01972706758 -0.03990771289 0)
(-0.006838305513 -0.02295471457 -5.878471455e-23)
(-0.0004725965699 -0.005876591412 3.8855085e-22)
(-0.000448058263 0.01844284246 -9.735817036e-23)
(-0.009472426738 0.04510744626 2.64537168e-22)
(-0.02327478211 0.06192083058 1.410972918e-22)
(-0.03974398445 0.07052541336 3.237310771e-24)
(-0.05710656896 0.07246234735 -6.524447986e-23)
(-0.07431560861 0.06890478422 7.502468162e-23)
(-0.09053751882 0.06066386484 -2.944646111e-24)
(-0.1050368512 0.04830325451 -1.252629559e-24)
(-0.1170730548 0.03231293265 1.779851442e-24)
(-0.1258563764 0.01329710219 3.813789874e-24)
(-0.1305618561 -0.007852467986 -2.340159603e-24)
(-0.1303882866 -0.02981967413 -3.612413473e-25)
(-0.1246859225 -0.05078171281 -2.789904314e-23)
(-0.1131491831 -0.06843475676 2.81193767e-23)
(-0.09605370605 -0.08017217698 -7.689238635e-25)
(-0.07452924477 -0.08350467901 0)
(-0.05076452559 -0.07677257422 0)
(-0.02795778557 -0.06007305063 -1.288022843e-24)
(-0.009974050156 -0.03603644575 1.316601611e-24)
(-0.0006695980704 -0.01014900154 9.016613342e-23)
(-0.0004209695177 0.02408603223 0)
(-0.01038343421 0.0581591415 1.816401435e-22)
(-0.02563403113 0.0794181342 8.121621424e-23)
(-0.0439621494 0.09035933506 0)
(-0.06349500958 0.09313383958 1.38546122e-22)
(-0.08317388785 0.08928169969 0)
(-0.102168777 0.0797724684 -1.200696741e-22)
(-0.1197310185 0.06517512689 5.311586126e-24)
(-0.1350571123 0.04589617568 0)
(-0.1472183942 0.02243587083 0)
(-0.1551549371 -0.004365099819 -9.293456549e-25)
(-0.1577220706 -0.03309687521 -4.769828353e-25)
(-0.1538253351 -0.06163302575 8.923114442e-23)
(-0.1426493936 -0.08703778754 -4.044021653e-23)
(-0.123980387 -0.1056859232 -8.160390077e-25)
(-0.09864671733 -0.1137017987 -1.198439375e-25)
(-0.06897457233 -0.1078918247 1.21724352e-25)
(-0.0390018521 -0.08720816962 0)
(-0.01436285269 -0.05429113554 2.206032862e-24)
(-0.0009623880725 -0.01638127351 -7.45418415e-22)
(-0.0003791799083 0.0301788082 0)
(-0.01099745932 0.07221633369 -1.055847786e-22)
(-0.02727565515 0.09829894574 -5.674627315e-22)
(-0.04696862002 0.1118783874 -3.403946345e-22)
(-0.06815595354 0.1157985515 0)
(-0.08981353952 0.1120126826 3.605086403e-22)
(-0.1111665167 0.1016530764 1.059698678e-22)
(-0.1315125769 0.08525718117 -4.584021964e-24)
(-0.1500532124 0.06307279228 4.561335051e-24)
(-0.1657929111 0.03538617452 0)
(-0.1774919051 0.002847347276 2.344674908e-23)
(-0.1837063667 -0.03321247805 3.456864466e-24)
(-0.1828838481 -0.07050594238 -7.2240424e-23)
(-0.1735730667 -0.1055614914 4.700828176e-23)
(-0.1548210804 -0.1336721291 -1.613326243e-22)
(-0.1267655148 -0.1492195074 0)
(-0.09142209678 -0.146707128 0)
(-0.05339216553 -0.122839353 0)
(-0.02042140242 -0.07934958357 0)
(-0.001402046476 -0.0253713773 4.181713275e-22)
(-0.0003285753218 0.03653319671 0)
(-0.01126727443 0.08685304952 -3.210395575e-22)
(-0.02802790727 0.11798106 8.189345909e-22)
(-0.04838096065 0.1343913131 3.278044508e-22)
(-0.07040084081 0.1397003728 0)
(-0.09314114055 0.1363300401 -3.382385505e-22)
(-0.1159358331 0.1255972614 -2.746307107e-23)
(-0.1382005026 0.1079939519 2.87853047e-22)
(-0.1592366265 0.08355715218 1.513473447e-22)
(-0.1781019315 0.05226389931 -3.452336653e-23)
(-0.1935296416 0.0144271188 1.508182957e-23)
(-0.2039052666 -0.02890995396 -6.64184914e-24)
(-0.2073107333 -0.07554431684 2.783566078e-22)
(-0.2016695156 -0.1217372223 0)
(-0.1851000167 -0.1618634315 1.614104742e-22)
(-0.1566027382 -0.1884164431 3.347896656e-24)
(-0.1171782542 -0.192841728 -3.397836951e-24)
(-0.07124111134 -0.1680478732 7.811817443e-23)
(-0.028568931 -0.1129988561 -3.178966793e-24)
(-0.002066211883 -0.03817188245 0)
(-0.0002902131422 0.0429578913 0)
(-0.01123643235 0.1015893055 0)
(-0.02786655692 0.1377437224 -4.60910885e-22)
(-0.04799201523 0.1569591113 -1.722118354e-23)
(-0.06971026465 0.1637136757 1.827157349e-23)
(-0.09219527057 0.1609689288 -1.805582636e-23)
(-0.1149442852 0.1502739011 -2.028517535e-23)
(-0.1375678164 0.1320975268 -2.613237162e-22)
(-0.1595797006 0.1062591323 6.249239242e-23)
(-0.1802488659 0.07237640972 3.831360961e-23)
(-0.1984852223 0.03030999488 -3.860121585e-23)
(-0.2127463379 -0.01938164953 0)
(-0.2210030137 -0.07492612112 -5.427911613e-23)
(-0.220736016 -0.132747942 0)
(-0.2091309785 -0.1867829766 -3.132176625e-22)
(-0.1837066173 -0.2279100138 4.185923421e-22)
(-0.1436138072 -0.2440991846 0)
(-0.09178971371 -0.2227200232 -7.494322218e-23)
(-0.03911742336 -0.156832805 1.159240304e-22)
(-0.003077726948 -0.05610018837 -2.632490876e-22)
(-0.0003138806551 0.04933635936 0)
(-0.01111671902 0.1159935579 8.526125285e-22)
(-0.02704526559 0.1568088102 -2.256686727e-23)
(-0.04595245168 0.178446277 8.494383423e-22)
(-0.06597778445 0.1863710239 -2.2994846e-23)
(-0.08647486143 0.1841763607 2.55096599e-23)
(-0.1071666819 0.1737154388 -2.527678779e-23)
(-0.1279357857 0.1554954892 -1.473871292e-23)
(-0.1486174449 0.1291673689 -4.670553387e-22)
(-0.1688512992 0.09400982912 -7.885110008e-24)
(-0.1879499276 0.04939064011 8.550023094e-24)
(-0.204753718 -0.004770672981 2.986419898e-22)
(-0.2174855005 -0.06746913113 -5.162333561e-22)
(-0.2235716113 -0.1358375632 0)
(-0.2195734588 -0.2041631511 7.711276624e-22)
(-0.2014989284 -0.2625581557 -3.9455612e-22)
(-0.1659802543 -0.2958534056 -1.254196634e-23)
(-0.112845101 -0.28457045 0)
(-0.05203532631 -0.2115971768 -1.124986554e-22)
(-0.004627261579 -0.0806900229 2.595011744e-22)
(-0.0005034658541 0.05576284933 1.441898579e-23)
(-0.01139256602 0.1298457053 -8.137556319e-22)
(-0.02623726111 0.1744713989 -1.083286816e-21)
(-0.04294331739 0.1976228636 -7.973310843e-22)
(-0.05972593448 0.2059624852 0)
(-0.07623294288 0.2038284662 3.204848761e-23)
(-0.0925043394 0.193458014 -6.635246602e-23)
(-0.1087735943 0.1754775834 5.319161456e-23)
(-0.1252832047 0.1494612944 2.707126793e-22)
(-0.1421602334 0.1144377619 -1.021252814e-23)
(-0.1592960604 0.06933556748 0)
(-0.1761960044 0.01339643714 -3.243741831e-22)
(-0.1917240589 -0.05333982263 6.877682986e-22)
(-0.2037843812 -0.1292630031 8.178189591e-22)
(-0.208955046 -0.2099592082 -4.695835634e-22)
(-0.20222229 -0.2861819872 4.671315402e-22)
(-0.1776005933 -0.3410426377 8.075990412e-24)
(-0.1303426973 -0.3482569356 -8.205701788e-24)
(-0.06653726152 -0.2761793423 -1.490545852e-22)
(-0.006984468444 -0.113516972 0)
(-0.001066337409 0.06275969764 -1.792992899e-23)
(-0.01296720912 0.143336711 -1.253929153e-21)
(-0.02666385576 0.1902221179 1.024810074e-21)
(-0.04026771099 0.21324973 6.354075959e-22)
(-0.05217159691 0.2206431455 5.653478474e-22)
(-0.06255000891 0.2176027833 6.207877333e-22)
(-0.07190983934 0.206797535 -4.109612478e-23)
(-0.08092416884 0.18902912 -3.212279073e-22)
(-0.09029389583 0.1638874719 1.996958248e-22)
(-0.100674647 0.1302738126 0)
(-0.112600711 0.08681475502 0)
(-0.1263650805 0.03218331619 2.500320988e-22)
(-0.1417736166 -0.03453624686 8.671697231e-23)
(-0.1577428023 -0.113285839 -2.49449707e-22)
(-0.1716972933 -0.2017684512 -5.072923569e-23)
(-0.1786606457 -0.2930859131 1.389496268e-22)
(-0.1708666706 -0.3711585925 -3.042527647e-22)
(-0.1383605688 -0.4051540057 -4.51675799e-23)
(-0.08052854771 -0.3463843978 1.488508593e-22)
(-0.01046312932 -0.1558384342 -6.455199702e-22)
(-0.002420772534 0.07165707449 0)
(-0.01736808757 0.1573279394 2.035595012e-21)
(-0.03012747406 0.203850788 0)
(-0.03968334018 0.2241218718 -1.283977225e-21)
(-0.04488130607 0.2285066168 6.645914728e-23)
(-0.04685241792 0.2231348993 -5.784974653e-22)
(-0.04679802196 0.2110551517 -4.473860701e-22)
(-0.04592844919 0.1932129861 7.748198657e-22)
(-0.04541487607 0.1692513495 -1.748087607e-22)
(-0.046398894 0.1380360404 0)
(-0.0499902336 0.09806223279 0)
(-0.05722343604 0.04765988055 2.663220101e-23)
(-0.06891283629 -0.01480309454 -5.694017625e-22)
(-0.08528257033 -0.09066816892 -4.087997361e-22)
(-0.1053985901 -0.1800624678 4.496566979e-22)
(-0.1257168166 -0.2799116352 -6.093367634e-22)
(-0.138603088 -0.3781396642 7.470273396e-23)
(-0.1296302896 -0.4442343373 5.995699453e-23)
(-0.09006066695 -0.4138962479 5.791167637e-22)
(-0.01530408134 -0.207893902 6.443034842e-22)
(-0.005320380122 0.08505620681 0)
(-0.02687957044 0.1731781898 1.503518709e-22)
(-0.03857404041 0.2149163255 -4.724899726e-23)
(-0.04240960078 0.2284932293 7.302398222e-22)
(-0.03831565017 0.2271374759 -6.666506249e-22)
(-0.02909048104 0.2177487547 4.508231441e-23)
(-0.01691469903 0.203488194 -1.005726725e-22)
(-0.003608828507 0.1852576199 -3.177891679e-22)
(0.00921920882 0.1626673253 1.957354464e-22)
(0.02005406779 0.1345999382 0)
(0.02737754896 0.09954143219 0)
(0.02959216789 0.05573623092 -2.772533509e-22)
(0.02503038975 0.001250460451 0)
(0.01223745766 -0.0661004806 -5.391829683e-22)
(-0.009898386112 -0.14847383 -7.866009559e-24)
(-0.04046202918 -0.24694186 2.484899829e-23)
(-0.07470935063 -0.3564532726 2.020634789e-22)
(-0.09590818498 -0.4536789061 5.390311221e-24)
(-0.08876489581 -0.465784052 -5.933949239e-22)
(-0.02115824049 -0.2673074098 0)
(-0.01119133029 0.1085168151 0)
(-0.04382255372 0.1930962707 -8.542945058e-22)
(-0.05124714431 0.2224432702 -5.292026401e-22)
(-0.04470314465 0.2235996915 4.445988719e-22)
(-0.02643347802 0.2131864799 -1.86803509e-24)
(-0.001836110924 0.1981479217 -4.410904315e-23)
(0.02578587899 0.1810964747 5.441079896e-22)
(0.05408209709 0.1624807932 -2.635009817e-23)
(0.08121480207 0.1416722705 -1.961761662e-22)
(0.1055116306 0.1175241829 3.006144425e-23)
(0.1252535694 0.08858914868 -3.296062666e-23)
(0.1385460495 0.05323712212 -3.585358269e-23)
(0.1431437204 0.009641208997 3.129962591e-22)
(0.1366563962 -0.04453815364 5.990882342e-22)
(0.1163402079 -0.1123485675 -5.022007656e-22)
(0.08022189888 -0.1980626972 -1.635513121e-22)
(0.02725686684 -0.3048712876 1.490100306e-22)
(-0.02689366242 -0.4221278095 7.255794661e-23)
(-0.06661887135 -0.4850330603 1.904238627e-21)
(-0.02530056586 -0.327511738 2.944060975e-21)
(-0.0199987339 0.1465231476 -4.31614659e-23)
(-0.06477170817 0.2110344026 4.342869571e-23)
(-0.05265013373 0.2162680375 9.838322599e-22)
(-0.02303234095 0.1989720953 -3.996373216e-24)
(0.01859347276 0.1778845781 0)
(0.06426940211 0.1577027102 4.233039005e-23)
(0.1104086501 0.1391681552 -2.189393631e-22)
(0.1548925245 0.1216886946 -8.662303893e-23)
(0.1962393565 0.1042021492 3.520936887e-23)
(0.2330825517 0.08549047228 -1.626736867e-23)
(0.2638852823 0.06426778202 3.29996258e-23)
(0.2868063811 0.03919945342 -6.398556317e-23)
(0.2993228516 0.008781189004 -9.035769819e-23)
(0.2987416946 -0.02865859937 1.49996665e-22)
(0.2812853173 -0.07597706794 0)
(0.2429319659 -0.1385530181 1.531695513e-22)
(0.1778885314 -0.2257070961 2.522003146e-22)
(0.09373358405 -0.3438032197 0)
(-0.007963910158 -0.4544780524 -3.65778295e-21)
(-0.01941859389 -0.3770643871 -2.881890514e-21)
(-0.02578241057 0.22815308 -9.47351997e-22)
(-0.0397571 0.2241558798 -1.376053403e-22)
(0.03633925332 0.1807908994 -2.296488096e-22)
(0.1078403291 0.1442177535 -1.167580087e-22)
(0.1791990761 0.115959118 -4.265681342e-23)
(0.2450834975 0.09488406717 9.586698249e-23)
(0.3048383286 0.07879330637 -1.365399934e-22)
(0.3584701619 0.06570819848 1.246710791e-22)
(0.4059404171 0.05412135832 -8.247890867e-23)
(0.4468626286 0.04285432705 1.154129601e-25)
(0.4803764344 0.03092272262 1.477518987e-23)
(0.5050422194 0.01745358005 7.762265958e-23)
(0.5188837219 0.001595361092 -1.773946538e-22)
(0.5194229471 -0.01759454637 -1.598832415e-22)
(0.5024543926 -0.04201264707 -4.255197514e-23)
(0.4638995536 -0.07577967466 0)
(0.3938957135 -0.128364011 -1.799653378e-22)
(0.2906390283 -0.2208241478 8.094008596e-22)
(0.1191296811 -0.3524599938 1.623365823e-21)
(0.02655127981 -0.3774623353 2.168370022e-21)
(0.2144319268 0.1348847522 9.820115735e-22)
(0.2780797067 0.09888747023 0)
(0.4321683273 0.05819225876 -2.575717114e-22)
(0.5306998898 0.038435546 -1.733813874e-22)
(0.6013380229 0.02612219946 0)
(0.6560315542 0.0181721004 -5.903890381e-23)
(0.6997240471 0.01300430125 6.177911424e-23)
(0.735254315 0.009465379834 -1.720188334e-23)
(0.7642776071 0.006804175635 2.758839487e-23)
(0.7875183071 0.004544201008 2.214449302e-23)
(0.804991172 0.002365421509 0)
(0.81622522 3.372367964e-05 -2.783808723e-23)
(0.8201629453 -0.002550287147 0)
(0.8153347769 -0.00556877592 2.697775188e-23)
(0.798722156 -0.009518962064 1.45473809e-23)
(0.7679250035 -0.01497466692 -5.736853162e-23)
(0.7107381828 -0.02505127121 -2.506498783e-22)
(0.6235982175 -0.0420987607 -6.87505843e-22)
(0.423009722 -0.09188218944 0)
(0.2705548034 -0.1524277476 -2.115302471e-21)
)
;

boundaryField
{
    movingWall
    {
        type            fixedValue;
        value           uniform (1 0 0);
    }
    fixedWalls
    {
        type            fixedValue;
        value           uniform (0 0 0);
    }
    frontAndBack
    {
        type            empty;
    }
}


// ************************************************************************* //
