/*--------------------------------*- C++ -*----------------------------------*\
  =========                 |
  \\      /  F ield         | OpenFOAM: The Open Source CFD Toolbox
   \\    /   O peration     | Website:  https://openfoam.org
    \\  /    A nd           | Version:  13
     \\/     M anipulation  |
\*---------------------------------------------------------------------------*/
FoamFile
{
    format      ascii;
    class       volVectorField;
    location    "7";
    object      U;
}
// * * * * * * * * * * * * * * * * * * * * * * * * * * * * * * * * * * * * * //

dimensions      [0 1 -1 0 0 0 0];

internalField   nonuniform List<vector> 
400
(
(8.145323024e-05 -8.373810063e-05 0)
(-0.0002772652505 8.70644217e-05 0)
(-0.001375458623 0.000251875853 0)
(-0.003022786622 0.0003580454523 0)
(-0.004956497545 0.0004122371854 0)
(-0.006955059701 0.0004245787926 0)
(-0.008848436054 0.0004025701555 0)
(-0.01050051421 0.0003495665872 0)
(-0.01179323489 0.0002664214825 0)
(-0.01261959608 0.0001541744903 0)
(-0.01288651943 1.690009102e-05 0)
(-0.01252674712 -0.0001360011843 0)
(-0.01151769508 -0.0002886895751 0)
(-0.009903065492 -0.0004190676712 0)
(-0.007811472767 -0.0005015100247 0)
(-0.005465166742 -0.0005120366726 0)
(-0.003171286875 -0.0004355141613 0)
(-0.001287531531 -0.0002738148277 0)
(-0.000141271426 -5.454892667e-05 0)
(0.0001266308975 0.0001245637807 0)
(-9.071796398e-05 0.0002723585239 0)
(-0.001608096908 0.001559390741 0)
(-0.004679603204 0.002776954376 0)
(-0.008877205673 0.003545182079 0)
(-0.01365422682 0.003870076342 0)
(-0.01853719272 0.003827414223 0)
(-0.02313250371 0.003488904692 0)
(-0.02711139975 0.002901191257 0)
(-0.0301873399 0.002091846717 0)
(-0.03210728144 0.001085342872 0)
(-0.03266062834 -7.898289366e-05 0)
(-0.03170596028 -0.001331369476 0)
(-0.02921114278 -0.002562336697 0)
(-0.02529795038 -0.003622623731 0)
(-0.0202781337 -0.004336778308 0)
(-0.01466428281 -0.004532758201 0)
(-0.009139154161 -0.004088062155 0)
(-0.004462299124 -0.00299236986 0)
(-0.001315150913 -0.001430025255 0)
(-1.278817716e-05 -0.0001061662659 0)
(-0.0002803427306 0.001432854346 0)
(-0.003079529874 0.004705550553 0)
(-0.007997711549 0.007455292091 0)
(-0.01435313409 0.009169481862 0)
(-0.02139344744 0.00986477831 0)
(-0.02849041755 0.009684088173 0)
(-0.03511248547 0.008772583746 0)
(-0.04080915337 0.007236309047 0)
(-0.04518741548 0.005149708797 0)
(-0.04790400652 0.002586141057 0)
(-0.04867757684 -0.0003448486067 0)
(-0.04732171452 -0.003464567127 0)
(-0.04379428612 -0.006505507126 0)
(-0.03825377889 -0.009113268186 0)
(-0.0311074804 -0.01087999776 0)
(-0.02303008377 -0.01141569999 0)
(-0.01493040303 -0.01045700825 0)
(-0.007836336366 -0.008002603501 0)
(-0.002721930367 -0.004455766702 0)
(-0.0001784479626 -0.001082058959 0)
(-0.0004419629932 0.003338687114 0)
(-0.004379422148 0.009416737903 0)
(-0.01097960992 0.01407582268 0)
(-0.01924524888 0.01687803074 0)
(-0.02823183375 0.01792798222 0)
(-0.03719423121 0.01747204644 0)
(-0.04551393696 0.01574909412 0)
(-0.0526669927 0.01293803564 0)
(-0.05819238164 0.009170783683 0)
(-0.06168104484 0.00457979326 0)
(-0.06278781227 -0.0006426542803 0)
(-0.06126795177 -0.006190360452 0)
(-0.05703492907 -0.01160898765 0)
(-0.05023163301 -0.01629582889 0)
(-0.04129983857 -0.01955153739 0)
(-0.03102207467 -0.02069751039 0)
(-0.02050474572 -0.01926002553 0)
(-0.0110599914 -0.01519530243 0)
(-0.004000517059 -0.009096914619 0)
(-0.0003196233001 -0.002754053212 0)
(-0.0005800530432 0.005873875289 0)
(-0.00552084463 0.01550660304 0)
(-0.01366360904 0.0224096532 0)
(-0.02368374463 0.02640455919 0)
(-0.03445330955 0.02777931927 0)
(-0.04512853843 0.02693329574 0)
(-0.05503396162 0.02422158386 0)
(-0.06360297053 0.01990303519 0)
(-0.07032951371 0.01416539869 0)
(-0.07474752481 0.007194257321 0)
(-0.07643792619 -0.0007416174044 0)
(-0.07506634296 -0.009208878397 0)
(-0.07045032677 -0.01755368988 0)
(-0.06265224774 -0.02488871934 0)
(-0.0520848904 -0.03015598009 0)
(-0.03959929443 -0.03229081455 0)
(-0.02650993273 -0.03049736642 0)
(-0.01448914806 -0.0245956482 0)
(-0.005293189677 -0.01532747527 0)
(-0.0004596877629 -0.005050808551 0)
(-0.0007021759524 0.008962267877 0)
(-0.006573109493 0.02285624004 0)
(-0.01617446188 0.03233565582 0)
(-0.02787188376 0.03763362044 0)
(-0.04036230921 0.03931923948 0)
(-0.05271906794 0.03800453072 0)
(-0.06423239749 0.03418831655 0)
(-0.07431618189 0.02821334874 0)
(-0.08243554493 0.02031103498 0)
(-0.08807023939 0.01069762801 0)
(-0.09071085203 -0.0003081263128 0)
(-0.08989461102 -0.01216946517 0)
(-0.08528079525 -0.02403714205 0)
(-0.07677030012 -0.03471012531 0)
(-0.0646639527 -0.04269033123 0)
(-0.04982434618 -0.04638629499 0)
(-0.03378092475 -0.04449920582 0)
(-0.01866727968 -0.03655007015 0)
(-0.006850706977 -0.02336886086 0)
(-0.000632372136 -0.008016380462 0)
(-0.0008153764182 0.01257717645 0)
(-0.007608267619 0.03141403799 0)
(-0.01864130628 0.04380534295 0)
(-0.03199867879 0.05053078792 0)
(-0.04620657635 0.05254004521 0)
(-0.06027349826 0.05072340911 0)
(-0.0734785625 0.04575377237 0)
(-0.08523961163 0.03805869657 0)
(-0.09501082922 0.02789171408 0)
(-0.1022239973 0.01546169837 0)
(-0.1062692034 0.001089294908 0)
(-0.106518587 -0.01463210706 0)
(-0.1024065401 -0.03068885003 0)
(-0.09357729719 -0.04555307755 0)
(-0.08010345135 -0.05719880002 0)
(-0.06275447074 -0.06332168157 0)
(-0.04323674159 -0.0618478457 0)
(-0.02423956587 -0.05172361281 0)
(-0.008979616607 -0.03374101021 0)
(-0.0008784052936 -0.01184573242 0)
(-0.0009247393768 0.01673085281 0)
(-0.008683652418 0.04118536615 0)
(-0.02116243559 0.05682460473 0)
(-0.03619213294 0.0651061788 0)
(-0.05212530423 0.06746968206 0)
(-0.06792670147 0.06515685329 0)
(-0.08289170844 0.05904818221 0)
(-0.09647115715 0.04965521817 0)
(-0.108134721 0.03722522537 0)
(-0.1172856789 0.02190884097 0)
(-0.123217805 0.003960256075 0)
(-0.1251206983 -0.0160463642 0)
(-0.1221504237 -0.03699986794 0)
(-0.113591293 -0.05706893051 0)
(-0.09913616142 -0.07363046121 0)
(-0.07928432371 -0.08345214551 0)
(-0.05578638405 -0.0833049179 0)
(-0.03191908876 -0.07110247261 0)
(-0.01204339211 -0.0473053537 0)
(-0.001247380331 -0.01690411554 0)
(-0.001034114887 0.02146422133 0)
(-0.009842543479 0.05221162017 0)
(-0.02379757128 0.0714218953 0)
(-0.04050173134 0.08136782624 0)
(-0.05812169619 0.08410893909 0)
(-0.07560236296 0.08132349337 0)
(-0.09228811707 0.07413838757 0)
(-0.1076996617 0.0631495455 0)
(-0.1213612201 0.04856751188 0)
(-0.1326869349 0.03042701562 0)
(-0.1409091369 0.008831874037 0)
(-0.1450520067 -0.01576987705 0)
(-0.1439741948 -0.04228137741 0)
(-0.1365184986 -0.06865516667 0)
(-0.1218273939 -0.09166406255 0)
(-0.09987141948 -0.1069505116 0)
(-0.07216322772 -0.1096537142 0)
(-0.04243761026 -0.09593602403 0)
(-0.01647986623 -0.06529428151 0)
(-0.001802567241 -0.02375924728 0)
(-0.001148751897 0.02684231046 0)
(-0.01112561165 0.06455235974 0)
(-0.02657889192 0.0876143885 0)
(-0.04490312456 0.09926967846 0)
(-0.06405674724 0.1023607814 0)
(-0.08299232012 0.09910469179 0)
(-0.1011414815 0.09092143951 0)
(-0.1181394965 0.07849698094 0)
(-0.1336180521 0.06197996715 0)
(-0.1470667132 0.04123483778 0)
(-0.1577301451 0.01612656466 0)
(-0.1645389352 -0.01315086614 0)
(-0.1661028674 -0.0456775073 0)
(-0.1608042829 -0.0793675044 0)
(-0.1470911705 -0.1105032611 0)
(-0.124090569 -0.1335116778 0)
(-0.09260984361 -0.1414031285 0)
(-0.05641571427 -0.1275657973 0)
(-0.02280916874 -0.08930995712 0)
(-0.002627752967 -0.03322984365 0)
(-0.001280756697 0.03295993949 0)
(-0.01259363437 0.07827602337 0)
(-0.02953854591 0.1053739727 0)
(-0.04932003947 0.1186519193 0)
(-0.06965863595 0.1219472433 0)
(-0.0895503659 0.1181395025 0)
(-0.108559494 0.1089977352 0)
(-0.1264874225 0.09531273759 0)
(-0.1431383211 0.07716043611 0)
(-0.158165469 0.05419864753 0)
(-0.1709433092 0.02598040341 0)
(-0.1804470971 -0.007685922038 0)
(-0.1851831692 -0.04626049213 0)
(-0.1831706324 -0.08789637297 0)
(-0.1721193405 -0.1286798396 0)
(-0.150021555 -0.1619679098 0)
(-0.1163551867 -0.1783012849 0)
(-0.07407535132 -0.1670470621 0)
(-0.03160066546 -0.1212304279 0)
(-0.003835970171 -0.04644604558 0)
(-0.001459490463 0.03996585234 0)
(-0.0143665847 0.09346654992 0)
(-0.03275384963 0.1245941506 0)
(-0.05365841701 0.1391710442 0)
(-0.07453841777 0.1423117022 0)
(-0.09449166374 0.1377051544 0)
(-0.1132747141 0.1275313857 0)
(-0.1309144404 0.1127109941 0)
(-0.1474603465 0.09325862611 0)
(-0.1628330042 0.06862319131 0)
(-0.176687669 0.03801139987 0)
(-0.1882461635 0.0007521859041 0)
(-0.1961612452 -0.04323504325 0)
(-0.1983409104 -0.09267053971 0)
(-0.1919075861 -0.1439574431 0)
(-0.1735898095 -0.1899008356 0)
(-0.1408959262 -0.2186697083 0)
(-0.09471212899 -0.2144597702 0)
(-0.04333592041 -0.1629070569 0)
(-0.005578823471 -0.06490631294 0)
(-0.001751471721 0.04812003693 0)
(-0.01668960854 0.1102531019 0)
(-0.03641179307 0.145051779 0)
(-0.05784024791 0.1602093648 0)
(-0.07818809491 0.162500329 0)
(-0.09676950973 0.1565864439 0)
(-0.1136259003 0.1451141686 0)
(-0.1290827134 0.1291624625 0)
(-0.1435098831 0.1087190479 0)
(-0.1571965106 0.08306406969 0)
(-0.1702257573 0.05108115311 0)
(-0.1823228545 0.01158134288 0)
(-0.1925910083 -0.03626993671 0)
(-0.1992138222 -0.09215913155 0)
(-0.1991708576 -0.1534800072 0)
(-0.1881275134 -0.2134457063 0)
(-0.1612366151 -0.2587104921 0)
(-0.1158944775 -0.2678718476 0)
(-0.05804809325 -0.215464123 0)
(-0.008050882187 -0.09048134576 0)
(-0.002298220415 0.05790905729 0)
(-0.02004264287 0.1288662727 0)
(-0.04088445553 0.1663405213 0)
(-0.06179501872 0.1807352172 0)
(-0.07989190246 0.1810034836 0)
(-0.09494471952 0.1729319125 0)
(-0.1074399884 0.1596518154 0)
(-0.1181008874 0.1424118765 0)
(-0.1276893423 0.1212156735 0)
(-0.1369366747 0.09525030176 0)
(-0.1464656043 0.06316660022 0)
(-0.1566589289 0.02331978049 0)
(-0.167402689 -0.02588470612 0)
(-0.17766907 -0.08540122729 0)
(-0.1849426423 -0.1543118191 0)
(-0.1845214067 -0.227567031 0)
(-0.1694283277 -0.2921346812 0)
(-0.1325211504 -0.3221328071 0)
(-0.07456491771 -0.2779797107 0)
(-0.0114659818 -0.1252288842 0)
(-0.003372868206 0.07025228197 0)
(-0.02529895814 0.1496961455 0)
(-0.04675129382 0.1876973837 0)
(-0.0652625962 0.199029574 0)
(-0.07834376218 0.1954941277 0)
(-0.08670524012 0.1840636454 0)
(-0.09155201629 0.1682710309 0)
(-0.09413741054 0.1494846494 0)
(-0.0956670926 0.1277360767 0)
(-0.09732136239 0.1021980234 0)
(-0.1002593471 0.0714262942 0)
(-0.1055620994 0.03350352051 0)
(-0.1140623975 -0.01379765879 0)
(-0.1259298696 -0.07268659802 0)
(-0.1399455227 -0.1444034559 0)
(-0.1522304258 -0.2270338881 0)
(-0.1548324615 -0.3105753777 0)
(-0.1361078697 -0.3680218456 0)
(-0.08921784332 -0.3455331868 0)
(-0.0159088126 -0.1707483495 0)
(-0.005403398047 0.08692386361 0)
(-0.03380956803 0.1732992965 0)
(-0.05444431786 0.2075094139 0)
(-0.06686477675 0.2120674019 0)
(-0.07030864436 0.202313702 0)
(-0.06734161633 0.1861610552 0)
(-0.06027720876 0.1672260784 0)
(-0.05101872149 0.1468095305 0)
(-0.04119288663 0.1248819161 0)
(-0.03231629743 0.1006283483 0)
(-0.02592217717 0.0726388232 0)
(-0.02362231249 0.03896794491 0)
(-0.02708102979 -0.002886218919 0)
(-0.03774371299 -0.05602597682 0)
(-0.05627352595 -0.1237098901 0)
(-0.08104540262 -0.2080404031 0)
(-0.105315846 -0.3050959676 0)
(-0.1147511876 -0.3924942023 0)
(-0.09413603808 -0.4072880624 0)
(-0.02079530903 -0.2268757127 0)
(-0.008925069743 0.1119588348 0)
(-0.04674436784 0.2000804372 0)
(-0.06204055834 0.2218126031 0)
(-0.06037906325 0.2140344629 0)
(-0.04623023484 0.195449609 0)
(-0.02533483042 0.1737684572 0)
(-0.001307235779 0.1518807009 0)
(0.02344278443 0.1305536587 0)
(0.04712997263 0.1094966846 0)
(0.06823189031 0.08781692747 0)
(0.08518885756 0.06422340824 0)
(0.09623223161 0.03697253328 0)
(0.09925332445 0.003705971466 0)
(0.09195765076 -0.03876043498 0)
(0.07187246164 -0.09479453578 0)
(0.03733535313 -0.1700480612 0)
(-0.008906910438 -0.2687136398 0)
(-0.05388577466 -0.3804472246 0)
(-0.07597820031 -0.4456900458 0)
(-0.02361446856 -0.290019276 0)
(-0.0157271104 0.1552388198 0)
(-0.06082539858 0.2279192355 0)
(-0.0543321179 0.2199422596 0)
(-0.02128929627 0.1935452127 0)
(0.02233456533 0.1657032603 0)
(0.06825526933 0.1402610642 0)
(0.112851735 0.1178678857 0)
(0.1542618894 0.09815589533 0)
(0.1913248625 0.08031690196 0)
(0.2231339662 0.06327562186 0)
(0.2486476099 0.0458980154 0)
(0.2663304667 0.02693365406 0)
(0.2742421721 0.004536723899 0)
(0.269973594 -0.02380230718 0)
(0.2500148029 -0.06201667937 0)
(0.2098069121 -0.1169632189 0)
(0.1459324754 -0.1998805472 0)
(0.06340515271 -0.3185988886 0)
(-0.01714634574 -0.4363784209 0)
(-0.01690480336 -0.3466224311 0)
(-0.02170961458 0.2108394203 0)
(-0.03630789208 0.2352993214 0)
(0.04125481711 0.1792427625 0)
(0.1283659563 0.1379336402 0)
(0.2069565672 0.1076141672 0)
(0.275476977 0.08427893539 0)
(0.3345128582 0.06626843278 0)
(0.3847477482 0.05215231643 0)
(0.4267249459 0.04064725744 0)
(0.460859214 0.03065246793 0)
(0.4865615171 0.02146193796 0)
(0.5038271034 0.01195642561 0)
(0.5115960793 0.000915701656 0)
(0.5074989145 -0.01315456389 0)
(0.4873543939 -0.03230571683 0)
(0.4458788766 -0.06122974734 0)
(0.3742169029 -0.1121111403 0)
(0.2623951063 -0.2065481538 0)
(0.1123391336 -0.3411748432 0)
(0.03412791575 -0.3328089764 0)
(0.2430252249 0.1096973244 0)
(0.3166721044 0.09804906614 0)
(0.4500350161 0.0575245683 0)
(0.555503733 0.03529710265 0)
(0.6292288799 0.02331427942 0)
(0.6829324547 0.01599282651 0)
(0.7234788112 0.01128351129 0)
(0.7545216094 0.008168311936 0)
(0.7783174976 0.006010810591 0)
(0.7962636738 0.00439948279 0)
(0.8091134931 0.003015371072 0)
(0.8169599192 0.001639308176 0)
(0.8193096695 0.0001218341686 0)
(0.814987028 -0.001664641176 0)
(0.8016401159 -0.004125652965 0)
(0.7749988326 -0.007933430983 0)
(0.725254333 -0.01530299312 0)
(0.6344453736 -0.03090068343 0)
(0.4619624174 -0.07983209984 0)
(0.3027979962 -0.1238401885 0)
)
;

boundaryField
{
    movingWall
    {
        type            fixedValue;
        value           uniform (1 0 0);
    }
    fixedWalls
    {
        type            fixedValue;
        value           uniform (0 0 0);
    }
    frontAndBack
    {
        type            empty;
    }
}


// ************************************************************************* //
