/*--------------------------------*- C++ -*----------------------------------*\
  =========                 |
  \\      /  F ield         | OpenFOAM: The Open Source CFD Toolbox
   \\    /   O peration     | Website:  https://openfoam.org
    \\  /    A nd           | Version:  13
     \\/     M anipulation  |
\*---------------------------------------------------------------------------*/
FoamFile
{
    format      ascii;
    class       volVectorField;
    location    "7";
    object      U_0;
}
// * * * * * * * * * * * * * * * * * * * * * * * * * * * * * * * * * * * * * //

dimensions      [0 1 -1 0 0 0 0];

internalField   nonuniform List<vector> 
400
(
(8.056334495e-05 -8.296778444e-05 0)
(-0.0002991537837 8.111148677e-05 0)
(-0.00139480648 0.0002412053711 0)
(-0.003017785424 0.0003450195551 0)
(-0.004901505516 0.000399263825 0)
(-0.00682733348 0.0004123256499 0)
(-0.008631842356 0.0003912001169 0)
(-0.01018971662 0.0003398241992 0)
(-0.0113969443 0.0002599728178 0)
(-0.01216234764 0.0001533786411 0)
(-0.01240807616 2.410795143e-05 0)
(-0.01207772348 -0.0001193985117 0)
(-0.01115101147 -0.0002633607198 0)
(-0.009661761433 -0.0003882334017 0)
(-0.007715223105 -0.0004707700389 0)
(-0.005500515333 -0.0004881388458 0)
(-0.003291231424 -0.0004244672072 0)
(-0.001424201419 -0.0002786231562 0)
(-0.0002338761056 -7.17360256e-05 0)
(0.0001082821711 0.0001071603878 0)
(-8.071430696e-05 0.0002952699745 0)
(-0.001622814001 0.001572834664 0)
(-0.004622877831 0.00274502649 0)
(-0.008700734231 0.003463531966 0)
(-0.01329767236 0.003740745558 0)
(-0.01795132633 0.003660459535 0)
(-0.0222876669 0.003302418302 0)
(-0.02600694991 0.002720045183 0)
(-0.0288580143 0.001945324589 0)
(-0.03062514251 0.001003332225 0)
(-0.03113119083 -7.174190693e-05 0)
(-0.03025670202 -0.001222540912 0)
(-0.02797133084 -0.00236003278 0)
(-0.02437196925 -0.003359407851 0)
(-0.01971793002 -0.004067185163 0)
(-0.01444998852 -0.004320959758 0)
(-0.009178681868 -0.003986399772 0)
(-0.004616186765 -0.003016850682 0)
(-0.001452660432 -0.001543945459 0)
(-3.738366148e-05 -0.000200905534 0)
(-0.0002573378903 0.001451809079 0)
(-0.003031228964 0.004647253194 0)
(-0.007782323652 0.007280147903 0)
(-0.01389863992 0.008873889075 0)
(-0.0206177833 0.00945879042 0)
(-0.02732855776 0.009196837119 0)
(-0.03352868569 0.008252667435 0)
(-0.03881006247 0.006747936201 0)
(-0.04283076412 0.00476608655 0)
(-0.04530082137 0.002379705444 0)
(-0.0459864006 -0.0003163049491 0)
(-0.04473284983 -0.003174849226 0)
(-0.04150313422 -0.005976112607 0)
(-0.03642546734 -0.008422370135 0)
(-0.02983914543 -0.01015589243 0)
(-0.02232197188 -0.01080896953 0)
(-0.01467907748 -0.01009317479 0)
(-0.007860432881 -0.007928922783 0)
(-0.002827634386 -0.004605371187 0)
(-0.0002019108017 -0.001251142831 0)
(-0.000406332634 0.003317131141 0)
(-0.004248719773 0.009204987893 0)
(-0.01056654491 0.01364493003 0)
(-0.01845193647 0.0162292637 0)
(-0.02695885513 0.0170850923 0)
(-0.03536569958 0.01649245369 0)
(-0.04309100306 0.01472415116 0)
(-0.04966302047 0.01198551557 0)
(-0.05468357792 0.008422775695 0)
(-0.05781007881 0.004165757719 0)
(-0.05875861505 -0.0006192878834 0)
(-0.05732915053 -0.005680562326 0)
(-0.05345049019 -0.01064534743 0)
(-0.04723967701 -0.01500868713 0)
(-0.03906488292 -0.01816075981 0)
(-0.02959236116 -0.01946914014 0)
(-0.01979071689 -0.01842827422 0)
(-0.01085132608 -0.01487031297 0)
(-0.004033357161 -0.009197613313 0)
(-0.0003408380777 -0.002977043875 0)
(-0.0005328554285 0.005764933846 0)
(-0.00530068184 0.01503673403 0)
(-0.0130388402 0.02158760362 0)
(-0.02253063085 0.025247208 0)
(-0.03265668039 0.02633125497 0)
(-0.04260132285 0.02528670319 0)
(-0.05173041475 0.02251789086 0)
(-0.05953549276 0.01832254722 0)
(-0.06558197346 0.01291010863 0)
(-0.06948221161 0.006463701289 0)
(-0.07089430066 -0.000783586104 0)
(-0.06954771113 -0.008475630831 0)
(-0.06529557979 -0.0160766903 0)
(-0.05819127074 -0.02284594269 0)
(-0.0485799446 -0.02786770459 0)
(-0.03718287982 -0.0301651708 0)
(-0.02513777038 -0.02892050795 0)
(-0.01393592832 -0.02378999823 0)
(-0.005212619347 -0.01523515602 0)
(-0.0004789706298 -0.00528630609 0)
(-0.0006447213959 0.008720041632 0)
(-0.006273764992 0.0220261271 0)
(-0.01536070652 0.03099074355 0)
(-0.02639634521 0.03581650711 0)
(-0.03809258309 0.03710007685 0)
(-0.0495514214 0.03551325595 0)
(-0.06010417241 0.03161982093 0)
(-0.0692244427 0.02581591646 0)
(-0.07645436831 0.01836572464 0)
(-0.08136326822 0.009488171728 0)
(-0.08353766979 -0.0005381691936 0)
(-0.08260467782 -0.01127089553 0)
(-0.07829104393 -0.02201581423 0)
(-0.07052117965 -0.03177326971 0)
(-0.05955033274 -0.03925687524 0)
(-0.04610917143 -0.04303148768 0)
(-0.03151038192 -0.04181630534 0)
(-0.01762717687 -0.03494750715 0)
(-0.006603050147 -0.02287739701 0)
(-0.0006483758326 -0.00820206714 0)
(-0.0007500658282 0.01216597389 0)
(-0.007257529847 0.03014181783 0)
(-0.01769987066 0.04183069143 0)
(-0.03029946327 0.04792706835 0)
(-0.04359669886 0.04940284279 0)
(-0.05662385466 0.04721859424 0)
(-0.06869577533 0.04212854987 0)
(-0.07928693158 0.03463106578 0)
(-0.08793039035 0.02502888153 0)
(-0.094157112 0.01354654522 0)
(-0.09747178374 0.0004696976476 0)
(-0.09736864626 -0.01371177156 0)
(-0.09339306707 -0.02816947115 0)
(-0.08526071474 -0.04163480584 0)
(-0.07304243153 -0.05238002967 0)
(-0.05739481396 -0.05836048208 0)
(-0.03977779962 -0.05760760275 0)
(-0.02252735747 -0.0489013362 0)
(-0.008488478984 -0.0325616374 0)
(-0.0008882613613 -0.01188855668 0)
(-0.0008556015693 0.01613412061 0)
(-0.008325492987 0.03942781739 0)
(-0.02019091729 0.05416006296 0)
(-0.03442656999 0.0616352432 0)
(-0.04938961699 0.06330691647 0)
(-0.06405781692 0.06049695059 0)
(-0.07775191593 0.05418467171 0)
(-0.08997153537 0.0449732877 0)
(-0.1002624411 0.03318206898 0)
(-0.1081322853 0.01899994921 0)
(-0.1130067992 0.00266395812 0)
(-0.1142288991 -0.01535156968 0)
(-0.1111134042 -0.0341379019 0)
(-0.1030787022 -0.05217654577 0)
(-0.08988333291 -0.06724087987 0)
(-0.07196543695 -0.07649889561 0)
(-0.05082977708 -0.07697906222 0)
(-0.02931207864 -0.06651910599 0)
(-0.01120583422 -0.04504384853 0)
(-0.001247192914 -0.01666705119 0)
(-0.0009666615076 0.02069271217 0)
(-0.009535993032 0.04998100991 0)
(-0.02292733569 0.06807485652 0)
(-0.03888317933 0.07701820544 0)
(-0.05555609068 0.07887726122 0)
(-0.07188819373 0.07542128182 0)
(-0.08723492239 0.06789495433 0)
(-0.1011536772 0.05700990412 0)
(-0.1132366187 0.0430774586 0)
(-0.1230005204 0.02620266159 0)
(-0.1298183261 0.006502983283 0)
(-0.1328901228 -0.01565103474 0)
(-0.1312755415 -0.03936515029 0)
(-0.1240166058 -0.06294191453 0)
(-0.1104076529 -0.0836461148 0)
(-0.09044996266 -0.09768832122 0)
(-0.06546738299 -0.1006915367 0)
(-0.03870997931 -0.08894585301 0)
(-0.01517080595 -0.06143565481 0)
(-0.001787121276 -0.02304766846 0)
(-0.001089188508 0.02594213826 0)
(-0.01094353784 0.06193184319 0)
(-0.02597148974 0.08367963182 0)
(-0.04369683055 0.09412304967 0)
(-0.06203661429 0.09611032604 0)
(-0.07992186877 0.09196330381 0)
(-0.09677910408 0.08324018295 0)
(-0.1122653528 0.07076848897 0)
(-0.1260666625 0.05483006946 0)
(-0.1377639101 0.03539819898 0)
(-0.1467357805 0.01239308066 0)
(-0.1520923804 -0.01403008128 0)
(-0.1526651838 -0.04313074975 0)
(-0.147084304 -0.07318107468 0)
(-0.1340378226 -0.1010245629 0)
(-0.1128105514 -0.1218221259 0)
(-0.08415600582 -0.1293541836 0)
(-0.05141287402 -0.1174894867 0)
(-0.02089720095 -0.08322837208 0)
(-0.002588450513 -0.03178208373 0)
(-0.00123424696 0.03202017395 0)
(-0.01261876548 0.07543224852 0)
(-0.02937594014 0.1010511396 0)
(-0.04882915301 0.1129066104 0)
(-0.06862237868 0.1148533528 0)
(-0.08771101143 0.1098945797 0)
(-0.1056387989 0.09995884838 0)
(-0.1222134612 0.08600383998 0)
(-0.1372757998 0.06827043108 0)
(-0.1505484988 0.04656411389 0)
(-0.1615139464 0.02053798998 0)
(-0.1693019605 -0.009990531432 0)
(-0.1726231639 -0.0446099963 0)
(-0.1697531619 -0.08180461077 0)
(-0.1587032745 -0.1182348036 0)
(-0.1377604112 -0.1481062434 0)
(-0.1065598078 -0.16302317 0)
(-0.06783762373 -0.1533339999 0)
(-0.02898048822 -0.1122506247 0)
(-0.003755641687 -0.04393356185 0)
(-0.001426945181 0.03912335039 0)
(-0.0146806887 0.09065491636 0)
(-0.0332147053 0.1201976649 0)
(-0.05418797136 0.1331589536 0)
(-0.07493864392 0.1347012029 0)
(-0.0945065571 0.1286627601 0)
(-0.1126155716 0.1174050056 0)
(-0.129285788 0.1020374762 0)
(-0.144584469 0.08276527737 0)
(-0.1584717343 0.0592155542 0)
(-0.1706668686 0.03073181626 0)
(-0.1804846259 -0.003303659811 0)
(-0.1867208826 -0.04302701529 0)
(-0.1874933731 -0.08742968267 0)
(-0.1802213947 -0.1334220476 0)
(-0.1620291099 -0.1746639933 0)
(-0.130827028 -0.2005949701 0)
(-0.08764804494 -0.19696155 0)
(-0.03999053723 -0.1504526538 0)
(-0.005423301079 -0.060951114 0)
(-0.001724173138 0.0475562295 0)
(-0.01735057539 0.1078071802 0)
(-0.03762460174 0.141003423 0)
(-0.05962491996 0.1543945771 0)
(-0.0803899343 0.1548573509 0)
(-0.0991606024 0.1472375804 0)
(-0.1159383683 0.1343863745 0)
(-0.1310345277 0.1175887973 0)
(-0.1448215069 0.09703732626 0)
(-0.1575965598 0.07220394549 0)
(-0.1694539134 0.04212698257 0)
(-0.1801182973 0.005704963069 0)
(-0.188741118 -0.03791690044 0)
(-0.1936100242 -0.08857600027 0)
(-0.1919028382 -0.1440340631 0)
(-0.1796893005 -0.1982182572 0)
(-0.1527165716 -0.2390645953 0)
(-0.1089664298 -0.2471861277 0)
(-0.05416138673 -0.1993277697 0)
(-0.007760897673 -0.08470488665 0)
(-0.002249459141 0.05782995227 0)
(-0.02104356865 0.127158732 0)
(-0.04284890056 0.1631297332 0)
(-0.06487764853 0.1756761365 0)
(-0.08400016346 0.1739325882 0)
(-0.09989900816 0.1639176294 0)
(-0.1130209335 0.1489957244 0)
(-0.1240773527 0.1306346188 0)
(-0.1338261151 0.1090431505 0)
(-0.1429804953 0.08359009124 0)
(-0.1521189067 0.05306822303 0)
(-0.1615544518 0.01591992111 0)
(-0.1710931353 -0.02945749608 0)
(-0.1796376643 -0.08405586128 0)
(-0.1847196892 -0.1471416561 0)
(-0.1819050789 -0.214096846 0)
(-0.1648431716 -0.2729116123 0)
(-0.1273210935 -0.2998606315 0)
(-0.07068682646 -0.2587074693 0)
(-0.0109598803 -0.1173605886 0)
(-0.003247995519 0.07084009448 0)
(-0.02650776836 0.1490555874 0)
(-0.04922807626 0.1857889169 0)
(-0.06932239355 0.1952808762 0)
(-0.08395865735 0.1896165354 0)
(-0.09375312548 0.1760692365 0)
(-0.09988675218 0.1584453641 0)
(-0.1036172226 0.1383420057 0)
(-0.1061501823 0.115981769 0)
(-0.1086321121 0.09068234337 0)
(-0.112137579 0.06109595559 0)
(-0.1176143403 0.02534642621 0)
(-0.1257184384 -0.01879776399 0)
(-0.1363970327 -0.07355337713 0)
(-0.1482786033 -0.1401844173 0)
(-0.1574831699 -0.2168608453 0)
(-0.1564805164 -0.2940845064 0)
(-0.1346114412 -0.346669052 0)
(-0.08639982322 -0.3247716486 0)
(-0.01511854777 -0.1608211708 0)
(-0.005124016022 0.08825574967 0)
(-0.03490672324 0.1738945153 0)
(-0.05685180565 0.2072086846 0)
(-0.07104289652 0.2100297052 0)
(-0.07627924893 0.1981096037 0)
(-0.07505751805 0.1797645112 0)
(-0.06971207253 0.1589358665 0)
(-0.0621753073 0.1371496603 0)
(-0.05407697241 0.1145397897 0)
(-0.04688195649 0.09037350334 0)
(-0.04200264969 0.06327335741 0)
(-0.04086869414 0.03127445515 0)
(-0.04492177895 -0.008179842663 0)
(-0.0553260199 -0.05821457867 0)
(-0.07245004566 -0.1220869434 0)
(-0.09435950581 -0.2017320541 0)
(-0.1143125539 -0.2930883368 0)
(-0.1185849253 -0.3748011703 0)
(-0.09379800441 -0.3877283593 0)
(-0.01974980016 -0.2154385314 0)
(-0.00840881326 0.1138129903 0)
(-0.04723139354 0.2017252808 0)
(-0.06350276632 0.2230053296 0)
(-0.06330431479 0.2136939548 0)
(-0.05068338733 0.193046497 0)
(-0.03142072498 0.169283982 0)
(-0.009224559269 0.1456563062 0)
(0.01347029412 0.1231211153 0)
(0.03490635274 0.1014875618 0)
(0.05364754585 0.07989783124 0)
(0.06831124754 0.0570138953 0)
(0.07736108704 0.03104015635 0)
(0.07894479905 -0.0004596598322 0)
(0.07097105515 -0.04078126151 0)
(0.05121204836 -0.09435491589 0)
(0.01848440177 -0.1667057527 0)
(-0.02405033522 -0.2614830621 0)
(-0.06323614611 -0.3682885724 0)
(-0.07919057425 -0.4303286021 0)
(-0.02243148304 -0.2781313271 0)
(-0.01488907639 0.1569801939 0)
(-0.06029989084 0.2302563645 0)
(-0.05414463874 0.2223310039 0)
(-0.02162822809 0.1946934172 0)
(0.02123787249 0.1650792836 0)
(0.06596471091 0.1379389589 0)
(0.1088445385 0.1141995707 0)
(0.1480494218 0.09361308702 0)
(0.1825480108 0.07540855761 0)
(0.2115709741 0.05854499331 0)
(0.2343102977 0.04178668322 0)
(0.2495888622 0.02372934727 0)
(0.2556853984 0.00252710595 0)
(0.250259178 -0.02441375797 0)
(0.2298660574 -0.06116942042 0)
(0.1902265511 -0.1147123073 0)
(0.1284342466 -0.1959203786 0)
(0.05060491617 -0.3119846869 0)
(-0.02349793801 -0.427527079 0)
(-0.01564531347 -0.3368014561 0)
(-0.02068740351 0.2122711033 0)
(-0.03563880441 0.2372508288 0)
(0.04321745408 0.180203345 0)
(0.1308421606 0.1382134384 0)
(0.2094092123 0.1069382805 0)
(0.2771512825 0.0827768379 0)
(0.3346443703 0.0641784838 0)
(0.3827567338 0.04974344873 0)
(0.4222820687 0.03819488816 0)
(0.4537679738 0.02843084681 0)
(0.4774260166 0.01946485059 0)
(0.4925174994 0.01048338756 0)
(0.4985519525 0.0001014257283 0)
(0.4930150009 -0.01287807224 0)
(0.4722966702 -0.03086731778 0)
(0.4307586416 -0.05901870229 0)
(0.3594973488 -0.1096293426 0)
(0.2498721967 -0.2050764865 0)
(0.1024310113 -0.3426696352 0)
(0.03429619718 -0.3290418986 0)
(0.2437324133 0.1099899903 0)
(0.3182868159 0.09886541401 0)
(0.4525789853 0.05876076934 0)
(0.5577644549 0.03665986034 0)
(0.6309127657 0.02447914392 0)
(0.6838148376 0.0169486868 0)
(0.7232285046 0.01208963531 0)
(0.7529247882 0.008872170389 0)
(0.7753189965 0.0066517162 0)
(0.7919431979 0.005010561511 0)
(0.8036481954 0.003667219652 0)
(0.810692711 0.002383196465 0)
(0.8127226 0.001010963294 0)
(0.808654221 -0.0006323951051 0)
(0.796193448 -0.002930135236 0)
(0.7711206895 -0.006446502552 0)
(0.7233030554 -0.01346448885 0)
(0.6351288879 -0.02841388903 0)
(0.4630719794 -0.07694381143 0)
(0.3028966408 -0.1226442851 0)
)
;

boundaryField
{
    movingWall
    {
        type            calculated;
        value           uniform (1 0 0);
    }
    fixedWalls
    {
        type            calculated;
        value           uniform (0 0 0);
    }
    frontAndBack
    {
        type            empty;
    }
}


// ************************************************************************* //
