/*--------------------------------*- C++ -*----------------------------------*\
  =========                 |
  \\      /  F ield         | OpenFOAM: The Open Source CFD Toolbox
   \\    /   O peration     | Website:  https://openfoam.org
    \\  /    A nd           | Version:  13
     \\/     M anipulation  |
\*---------------------------------------------------------------------------*/
FoamFile
{
    format      ascii;
    class       volVectorField;
    location    "7";
    object      U_0;
}
// * * * * * * * * * * * * * * * * * * * * * * * * * * * * * * * * * * * * * //

dimensions      [0 1 -1 0 0 0 0];

internalField   nonuniform List<vector> 
100
(
(-0.000482244 0.000464694 0)
(-0.00533869 0.00152732 0)
(-0.0130202 0.00206076 0)
(-0.0211206 0.00206183 0)
(-0.0272497 0.00151979 0)
(-0.0294076 0.000365776 0)
(-0.0261444 -0.00117475 0)
(-0.0177323 -0.00238989 0)
(-0.00747548 -0.00223371 0)
(-0.000726419 -0.0005966 0)
(-0.00191922 0.00569533 0)
(-0.0152548 0.0131432 0)
(-0.0333738 0.0157591 0)
(-0.0513206 0.0140413 0)
(-0.0643193 0.00851158 0)
(-0.0685787 -0.000348443 0)
(-0.0614886 -0.010682 0)
(-0.043438 -0.018275 0)
(-0.0202391 -0.0174645 0)
(-0.00252423 -0.00692143 0)
(-0.00320571 0.0161242 0)
(-0.0237167 0.033115 0)
(-0.0498449 0.0376736 0)
(-0.0750179 0.032563 0)
(-0.093413 0.0192136 0)
(-0.10043 -0.00121752 0)
(-0.0923794 -0.0250337 0)
(-0.0684583 -0.0436245 0)
(-0.0345496 -0.0441868 0)
(-0.00468214 -0.0201419 0)
(-0.00430774 0.0310803 0)
(-0.0309702 0.06018 0)
(-0.0637237 0.0665672 0)
(-0.0952174 0.0571553 0)
(-0.119377 0.0345695 0)
(-0.131161 0.000146476 0)
(-0.125378 -0.04134 0)
(-0.0986307 -0.0770903 0)
(-0.0547203 -0.0841162 0)
(-0.00813079 -0.0425658 0)
(-0.00528046 0.0499941 0)
(-0.0372546 0.0928959 0)
(-0.0747959 0.100957 0)
(-0.110848 0.0870277 0)
(-0.13995 0.0550869 0)
(-0.157363 0.00577103 0)
(-0.156846 -0.0568156 0)
(-0.131869 -0.117172 0)
(-0.0818927 -0.1402 0)
(-0.0136316 -0.0794515 0)
(-0.00611163 0.0725557 0)
(-0.042221 0.129292 0)
(-0.0805937 0.137936 0)
(-0.116042 0.119201 0)
(-0.145137 0.0787615 0)
(-0.165379 0.0157943 0)
(-0.171405 -0.0684735 0)
(-0.154392 -0.159513 0)
(-0.108318 -0.212497 0)
(-0.0208485 -0.138835 0)
(-0.00689025 0.0990425 0)
(-0.0456313 0.165811 0)
(-0.0770385 0.171054 0)
(-0.100773 0.146417 0)
(-0.118495 0.0997599 0)
(-0.133092 0.028656 0)
(-0.143319 -0.0705674 0)
(-0.140197 -0.191008 0)
(-0.113069 -0.288135 0)
(-0.0263233 -0.225593 0)
(-0.00935637 0.134532 0)
(-0.049505 0.196922 0)
(-0.0583909 0.188788 0)
(-0.0495104 0.156043 0)
(-0.0377205 0.108918 0)
(-0.0329057 0.0425651 0)
(-0.0404942 -0.0529869 0)
(-0.0546275 -0.185978 0)
(-0.0646632 -0.328594 0)
(-0.016615 -0.315932 0)
(-0.0324397 0.193073 0)
(-0.0441848 0.2131 0)
(0.0212255 0.166318 0)
(0.0911366 0.128241 0)
(0.147045 0.0914088 0)
(0.180423 0.0473363 0)
(0.181092 -0.0159043 0)
(0.14931 -0.121769 0)
(0.0810024 -0.271033 0)
(0.0529799 -0.313875 0)
(0.225853 0.106996 0)
(0.287441 0.100343 0)
(0.407859 0.0668769 0)
(0.506618 0.0461867 0)
(0.572917 0.03278 0)
(0.611507 0.0217211 0)
(0.613648 0.008269 0)
(0.576721 -0.0106743 0)
(0.453459 -0.0529325 0)
(0.319758 -0.107071 0)
)
;

boundaryField
{
    movingWall
    {
        type            calculated;
        value           uniform (1 0 0);
    }
    fixedWalls
    {
        type            calculated;
        value           uniform (0 0 0);
    }
    frontAndBack
    {
        type            empty;
    }
}


// ************************************************************************* //
