/*--------------------------------*- C++ -*----------------------------------*\
  =========                 |
  \\      /  F ield         | OpenFOAM: The Open Source CFD Toolbox
   \\    /   O peration     | Website:  https://openfoam.org
    \\  /    A nd           | Version:  13
     \\/     M anipulation  |
\*---------------------------------------------------------------------------*/
FoamFile
{
    format      ascii;
    class       scalarField;
    location    "29.66";
    object      p_all;
}
// * * * * * * * * * * * * * * * * * * * * * * * * * * * * * * * * * * * * * //


400
(
5.348692748e-07
-0.0005468874375
-0.0008889390048
-0.001016428239
-0.0009375606313
-0.0006846927387
-0.0002954042145
0.0001943103999
0.0007479328953
0.001324988668
0.001879840312
0.002359620628
0.002708925997
0.002874659487
0.002815295902
0.002512853935
0.001987811804
0.001297304926
0.0006384007462
4.25123526e-05
0.0005887600553
7.470144455e-06
-0.0003562673282
-0.0004986053555
-0.0004679590615
-0.0002908861363
3.229698587e-06
0.0003850858149
0.0008232611144
0.001280490184
0.001716939197
0.002081460966
0.002323684838
0.002396240487
0.002265254021
0.001921955554
0.001393099941
0.0007437447151
0.0001461156663
-0.0005165685329
0.0009530066785
0.0003086072897
-9.263727658e-05
-0.0002389688245
-0.000232858827
-0.0001043710843
0.00012246576
0.0004263639625
0.0007835818267
0.001162102069
0.001530123429
0.001833518935
0.002022363231
0.002047937024
0.001875105939
0.001494054521
0.000928765146
0.0002357975631
-0.0004626584224
-0.001299628677
0.0009767143002
0.0002585456664
-0.0001916958359
-0.0003439808489
-0.0003532378221
-0.0002562616252
-7.368303169e-05
0.0001819145215
0.0004969931295
0.0008513122191
0.00120367169
0.00151115005
0.001712945316
0.001748528363
0.001569036549
0.001151089221
0.0005065111346
-0.000317961682
-0.001233282173
-0.002384075484
0.0004810610605
-0.0002844292967
-0.0007633362019
-0.0009150323409
-0.000936046428
-0.0008676125492
-0.0007247059783
-0.00050777632
-0.0002165318445
0.0001397851493
0.0005307388062
0.0009080514802
0.001200492536
0.001327173993
0.001211685947
0.0008008395957
8.059135446e-05
-0.0009169977689
-0.002126971619
-0.003655462617
-0.0006857768029
-0.001466555725
-0.00195560693
-0.002106662944
-0.002149436941
-0.002126076538
-0.002041684947
-0.001879056577
-0.001616938419
-0.001244898714
-0.0007784735759
-0.0002622036027
0.0002212844776
0.0005621557996
0.0006384988402
0.0003421857134
-0.0003923751251
-0.001563407362
-0.003134183606
-0.005141410235
-0.00266123761
-0.003422937723
-0.003914797237
-0.004080174442
-0.004177539697
-0.004246585478
-0.004277592728
-0.004228526077
-0.004046912608
-0.003688950427
-0.003140087692
-0.002426080355
-0.001632829968
-0.0009027596172
-0.0004241541575
-0.0003980250717
-0.0009875756681
-0.002259914447
-0.004232068017
-0.00682763548
-0.005554419069
-0.006269337904
-0.006767614282
-0.006981551584
-0.007194931551
-0.007442819171
-0.007696513752
-0.007881567444
-0.007901522165
-0.00765995299
-0.007086676336
-0.006158812456
-0.004943060928
-0.003604183943
-0.002413258862
-0.001713848806
-0.001842541588
-0.003014357011
-0.005367787346
-0.008661570849
-0.009434614082
-0.01008095073
-0.0105978123
-0.01091003942
-0.01132542496
-0.01187529092
-0.01251065083
-0.01311901107
-0.01354715832
-0.0136227177
-0.01318183035
-0.01212046869
-0.01042737353
-0.008255912016
-0.005955696046
-0.004061286553
-0.00318956319
-0.003842470151
-0.006425863861
-0.0104910417
-0.01431635209
-0.01487534643
-0.01542233242
-0.01588156393
-0.01658938042
-0.01757948671
-0.0187863228
-0.02005843411
-0.02117690622
-0.02187294909
-0.02185671994
-0.02087159965
-0.0187712614
-0.01561944558
-0.01179443605
-0.008036719229
-0.005359297113
-0.004759568738
-0.007180591665
-0.01197866479
-0.02015383091
-0.02060406206
-0.02117424995
-0.02179624242
-0.02285157477
-0.02438980161
-0.02633863966
-0.02851299915
-0.03062692064
-0.0323028421
-0.03309459227
-0.03254004134
-0.03028182681
-0.02617804176
-0.02052425999
-0.01420331674
-0.008690953021
-0.005726043883
-0.007218698776
-0.01246584265
-0.02685583122
-0.0271615954
-0.02770203065
-0.02842243507
-0.02978861152
-0.03188851749
-0.03465826867
-0.03788900066
-0.04123326202
-0.04420437255
-0.04618744121
-0.04647809487
-0.04446240644
-0.03965937432
-0.03212038667
-0.02269814088
-0.01326597932
-0.006485366191
-0.005808074088
-0.01076467415
-0.03433416761
-0.03441758674
-0.03478892695
-0.03540400019
-0.03689128901
-0.03940940942
-0.04291941773
-0.04719702066
-0.05183938998
-0.05625769083
-0.05967904525
-0.06119021634
-0.05977885961
-0.05465513016
-0.04544043486
-0.03269910559
-0.01845251535
-0.006245350109
-0.001673414872
-0.004873062021
-0.04260929244
-0.04227887833
-0.04219510471
-0.0422954197
-0.04351314754
-0.04611581446
-0.05009899747
-0.05521973851
-0.06101439896
-0.06679550087
-0.07163944967
-0.07441236565
-0.07383195094
-0.06867429979
-0.05807139196
-0.042061291
-0.02243952412
-0.003256712811
0.00734756107
0.008341938909
-0.05200979232
-0.0507604632
-0.04967729877
-0.04857839883
-0.04892625179
-0.05111965661
-0.05517232342
-0.06079564635
-0.06743493513
-0.07428929751
-0.08028218566
-0.08407566268
-0.08413012892
-0.07883705162
-0.06684234798
-0.0475229814
-0.0221270276
0.005502223269
0.0247158133
0.03352783575
-0.06365539902
-0.06018871405
-0.0570968774
-0.05376393664
-0.0524650749
-0.05367972539
-0.05736454176
-0.06313772451
-0.07026217581
-0.07780063582
-0.08449233892
-0.0887855811
-0.08889794383
-0.08283925881
-0.06885038237
-0.04562043114
-0.01375112776
0.02441730237
0.05554005141
0.07735628173
-0.08018597642
-0.07107455132
-0.06412083225
-0.05716515465
-0.0534313165
-0.05321538604
-0.0562591186
-0.06191411991
-0.06925924836
-0.07711723436
-0.08401251175
-0.08815199846
-0.08748046878
-0.07965624153
-0.062479134
-0.03405008156
0.005565270048
0.05859449532
0.1058235145
0.1480682184
-0.1105073957
-0.08585472178
-0.07160671979
-0.05897177765
-0.05191418737
-0.0498839194
-0.05210370456
-0.05750983486
-0.06486064268
-0.07270952088
-0.07934095217
-0.08271427865
-0.08052005216
-0.06988699708
-0.04823210822
-0.01272217921
0.03823657566
0.1071325478
0.1779791104
0.2564769465
-0.1684376055
-0.09990891423
-0.07500904562
-0.05479869212
-0.04461983889
-0.04158635645
-0.0437189631
-0.04938286883
-0.05701850821
-0.06497207228
-0.07136294882
-0.07398124455
-0.07013007565
-0.0570136045
-0.03102825093
0.01192975369
0.07559991977
0.1664046809
0.2761624581
0.4377047255
-0.3984288917
-0.1381000755
-0.07497121861
-0.04708925561
-0.03355033018
-0.03003112172
-0.03280330451
-0.03926609391
-0.04755986604
-0.0559404107
-0.0625014304
-0.06503051714
-0.06099578519
-0.04696962141
-0.01875645444
0.02993589159
0.1069561225
0.2334277011
0.4198806535
0.7800238376
)


// ************************************************************************* //
