/*--------------------------------*- C++ -*----------------------------------*\
  =========                 |
  \\      /  F ield         | OpenFOAM: The Open Source CFD Toolbox
   \\    /   O peration     | Website:  https://openfoam.org
    \\  /    A nd           | Version:  13
     \\/     M anipulation  |
\*---------------------------------------------------------------------------*/
FoamFile
{
    format      ascii;
    class       vectorField;
    location    "24.06";
    object      U_all;
}
// * * * * * * * * * * * * * * * * * * * * * * * * * * * * * * * * * * * * * //


400
(
(1.088223608e-05 -3.789668679e-05 0)
(-0.0006661969948 0.0004130115026 -1.543713311e-23)
(-0.002185285961 0.0009203342176 0)
(-0.004047589634 0.001312689024 0)
(-0.005971472536 0.001534956381 6.83285707e-25)
(-0.007762254409 0.001569736022 4.15312255e-24)
(-0.009283914356 0.001423464003 -7.334646085e-24)
(-0.01043524786 0.001119648171 7.570896271e-24)
(-0.0111361031 0.0006960400919 -2.098579033e-25)
(-0.01132642906 0.0002030701386 -3.999483098e-24)
(-0.01097116422 -0.0003002087192 5.808932062e-24)
(-0.01007183264 -0.0007474683496 -5.933981301e-23)
(-0.008679524944 -0.001075504355 -6.557271108e-23)
(-0.006902649132 -0.001232990504 -7.789099036e-23)
(-0.004910677422 -0.001192602823 4.576628411e-24)
(-0.002927286157 -0.0009619124127 -4.141154365e-24)
(-0.001205424636 -0.0005912333476 -2.000954758e-22)
(-1.920495085e-05 -0.0001699262538 0)
(0.0005180560328 0.0001720330169 1.51935314e-25)
(0.0002227261991 0.0003059443077 -2.679870145e-24)
(-0.0002634009753 0.0008288228104 1.388788868e-25)
(-0.002703169537 0.003383557592 1.553380041e-23)
(-0.006906780762 0.005604045838 1.543561772e-25)
(-0.01195140251 0.007007646136 -8.470986335e-25)
(-0.01713370475 0.007553183853 1.158483123e-24)
(-0.02197364172 0.007293648659 1.302787127e-23)
(-0.02610875983 0.006321446048 1.429285204e-24)
(-0.02926346648 0.004753894674 -7.321536963e-24)
(-0.03122449248 0.002737030815 1.017284355e-23)
(-0.03183984085 0.0004524668001 4.515579467e-24)
(-0.03102563394 -0.001883911768 -6.324661267e-24)
(-0.02879147756 -0.004022666425 2.961136714e-24)
(-0.02527005856 -0.005707919813 3.897903326e-23)
(-0.02073102084 -0.006706972323 -1.956346483e-24)
(-0.01558908357 -0.006853769773 3.75773041e-24)
(-0.01038491817 -0.006097217563 -9.752426144e-23)
(-0.005730285837 -0.004546094198 9.649262785e-23)
(-0.002233485739 -0.002507471307 -3.980619122e-25)
(-0.0001818846823 -0.0005025155121 4.081010823e-25)
(8.34190186e-05 0.0006098121008 0)
(-0.0004187984081 0.002934829581 -2.915980576e-25)
(-0.004647509838 0.008803273214 1.709511602e-23)
(-0.0113710102 0.01323930279 -8.209842541e-24)
(-0.01932565884 0.01579072067 -2.063538213e-25)
(-0.0274718085 0.0165286571 2.027210415e-25)
(-0.0351148825 0.01564320599 8.066661948e-27)
(-0.04171007771 0.01335902395 -1.26047339e-24)
(-0.04683205051 0.009919169357 -4.577183665e-25)
(-0.0501461159 0.005602234682 -1.065203891e-23)
(-0.05140862205 0.0007446361119 0)
(-0.05047449303 -0.004241194632 0)
(-0.04733404495 -0.008886307973 2.673360979e-23)
(-0.0421567954 -0.01268071219 2.815332884e-23)
(-0.03531248677 -0.01513495564 -1.647780793e-24)
(-0.02738867303 -0.01586090573 4.851457176e-23)
(-0.01916930574 -0.01467258562 9.430388654e-23)
(-0.01156057252 -0.01169316467 3.987624357e-23)
(-0.005465336505 -0.007450631506 4.181087144e-25)
(-0.001451131477 -0.002936174167 1.053396778e-25)
(-9.072763521e-05 0.0002257109971 0)
(-0.0005024182 0.006044833536 -4.255569765e-23)
(-0.00640217422 0.01636933528 -1.699721357e-23)
(-0.01553365049 0.0235572982 8.136725017e-24)
(-0.02627682178 0.02743929897 0)
(-0.03728426155 0.02831870513 0)
(-0.0476863676 0.02658567281 0)
(-0.0567919923 0.02262961412 -4.596968408e-26)
(-0.06404878376 0.01683510743 -2.113687827e-24)
(-0.06900557379 0.009621879965 0)
(-0.07130310111 0.001491440871 1.64132375e-24)
(-0.07070365004 -0.006935485585 2.806489869e-25)
(-0.06712599649 -0.01492866187 -2.814347979e-25)
(-0.06069530726 -0.02166542419 0)
(-0.05180450892 -0.02631408722 4.138656536e-23)
(-0.04114770816 -0.02815885928 -4.687008894e-23)
(-0.02971824232 -0.02677221034 -2.768068377e-23)
(-0.01873634359 -0.02221428866 -3.972963065e-23)
(-0.009487670212 -0.01521875434 7.795279069e-25)
(-0.00297680086 -0.007298182879 9.776543117e-23)
(-0.0002318698277 -0.0008663287749 0)
(-0.0005315609473 0.01009413346 4.276272546e-23)
(-0.00798287785 0.02594991759 4.773744628e-25)
(-0.01939516848 0.03642567166 -4.664713487e-25)
(-0.0328209952 0.04185167712 0)
(-0.0466429641 0.04289138806 7.770015448e-25)
(-0.059847399 0.04019770033 -7.662281552e-25)
(-0.07162723936 0.03434507533 3.667877911e-23)
(-0.08132130133 0.02585518736 1.843580564e-23)
(-0.08835952695 0.01527251952 6.225729302e-24)
(-0.09224821294 0.003246684428 -1.643235917e-24)
(-0.09259757984 -0.009406363711 0)
(-0.08916983995 -0.02167254221 4.378853433e-25)
(-0.08195478414 -0.03236467923 1.011911515e-23)
(-0.07126470499 -0.04020949155 -4.355039425e-23)
(-0.05781698361 -0.04401754242 1.936513712e-24)
(-0.0427835756 -0.04294578144 4.229457678e-23)
(-0.02775311649 -0.03683162307 -3.861401681e-25)
(-0.01454993396 -0.02652615716 0)
(-0.004859247875 -0.01408421908 5.435978656e-23)
(-0.0003641248529 -0.00284703434 -2.563556736e-22)
(-0.0005271733689 0.01499796187 9.833579167e-23)
(-0.009377130834 0.03738696776 -4.901845976e-25)
(-0.02287992947 0.05169782136 0)
(-0.03882728812 0.0589369722 0)
(-0.05538219896 0.06025102202 -8.727608638e-23)
(-0.07142330725 0.05661488494 -8.494435574e-23)
(-0.08606019426 0.04879850785 -4.062692735e-23)
(-0.09854387299 0.03743780701 -1.502061278e-23)
(-0.1081871771 0.02315915034 -5.35727059e-24)
(-0.1143370346 0.006710318432 -8.16760648e-24)
(-0.1163973767 -0.01093103688 6.593057836e-24)
(-0.1138869531 -0.02848650687 8.811562554e-24)
(-0.1065426068 -0.04436673854 -1.891980407e-23)
(-0.09446284557 -0.05674919197 4.543546958e-24)
(-0.07826441541 -0.0637788347 0)
(-0.05922591007 -0.06393122689 -1.57932283e-23)
(-0.03933785212 -0.05653524139 -2.222093202e-26)
(-0.02114085145 -0.04235621829 0)
(-0.007318346607 -0.02398147821 -1.519191996e-22)
(-0.0005215799867 -0.005925479848 6.053135628e-22)
(-0.000499047668 0.02064397344 -9.766604818e-23)
(-0.01052871848 0.0504501117 2.831051671e-22)
(-0.02582766244 0.06911941787 1.526388278e-22)
(-0.0440181936 0.0784863573 3.617825206e-24)
(-0.0631029437 0.0802887498 -7.318611785e-23)
(-0.08189846779 0.07587518598 9.038577872e-23)
(-0.09947111323 0.06621284819 -3.588582682e-24)
(-0.115015511 0.0520143528 -1.728238156e-24)
(-0.1277442484 0.0339225974 2.522746097e-24)
(-0.1368394175 0.01270298391 7.375719172e-24)
(-0.141463307 -0.01058561628 -6.493242479e-24)
(-0.1408174336 -0.03445668004 -9.771475025e-24)
(-0.1342678235 -0.05692309765 -3.261548721e-23)
(-0.1215390939 -0.07552788689 -3.651000379e-23)
(-0.1029623759 -0.08753715856 5.624588116e-25)
(-0.07975998665 -0.09038701324 0)
(-0.0542643309 -0.08244093934 0)
(-0.02987023901 -0.06397445626 -2.903692906e-24)
(-0.01066235369 -0.03798646437 2.968089551e-24)
(-0.000735045991 -0.01050060727 1.027784753e-22)
(-0.0004479021609 0.02687030887 0)
(-0.01134853464 0.0648023501 2.001826649e-22)
(-0.02801427185 0.08828925631 8.961496551e-23)
(-0.04799565731 0.1001159861 0)
(-0.06920191642 0.1027004207 1.569374038e-22)
(-0.09043854673 0.0978094804 0)
(-0.1107770747 0.08660612332 -1.428021683e-22)
(-0.129402587 0.06983630352 6.513509241e-24)
(-0.1454699083 0.04808099323 0)
(-0.1580276951 0.02201813267 0)
(-0.1660058646 -0.007332042029 -1.37379693e-24)
(-0.1682599094 -0.03838437072 -9.310591786e-25)
(-0.1636996819 -0.06883440799 1.491168032e-22)
(-0.1515147731 -0.09557649378 -4.704268843e-23)
(-0.1315082573 -0.1148232059 -2.558534924e-24)
(-0.1045555094 -0.1225638954 1.532361996e-24)
(-0.07309062836 -0.115546221 -1.556533918e-24)
(-0.04134856732 -0.09282704131 0)
(-0.01525167283 -0.05740537 3.202483731e-24)
(-0.00104425046 -0.01714656003 -1.012565407e-21)
(-0.0003744774938 0.03346049123 0)
(-0.01174954629 0.0799831688 -1.127842427e-22)
(-0.02920574496 0.108631154 -6.18998568e-22)
(-0.05031513293 0.1232147996 -3.754659356e-22)
(-0.07295985953 0.1269014313 0)
(-0.0959853708 0.1219183543 4.11868507e-22)
(-0.1185223462 0.1096292332 1.260601135e-22)
(-0.1398090476 0.09077873495 -5.580515475e-24)
(-0.1590161576 0.06581228271 5.552894922e-24)
(-0.1751398843 0.03520926585 0)
(-0.186949731 -0.0001942790456 2.911486789e-23)
(-0.1930111051 -0.0388932534 4.694362737e-24)
(-0.191775097 -0.07843306611 -1.076360425e-22)
(-0.1817819791 -0.1151795779 7.999959197e-23)
(-0.1620521998 -0.1442523453 -2.418794141e-22)
(-0.1327021924 -0.1598472472 0)
(-0.09577591703 -0.1563044046 0)
(-0.05601452802 -0.1302927401 0)
(-0.02147785672 -0.08380811265 0)
(-0.001500315363 -0.02665421353 5.570342029e-22)
(-0.0002874287025 0.04015799978 0)
(-0.0116933421 0.09542956137 -3.49242159e-22)
(-0.02924362 0.1293987041 8.931465452e-22)
(-0.05060804956 0.1469205373 3.616552908e-22)
(-0.0736987095 0.1519658529 0)
(-0.09744875425 0.1472679499 -3.861831695e-22)
(-0.1211036995 0.1344130688 -3.173879185e-23)
(-0.1440288084 0.1141352624 3.332579992e-22)
(-0.1655104089 0.08669820738 1.769193044e-22)
(-0.1846208148 0.05229159117 -4.059511452e-23)
(-0.20012851 0.01141961846 1.656720666e-23)
(-0.2104581982 -0.03470989311 -8.263505902e-24)
(-0.2137168726 -0.08375967421 3.371249534e-22)
(-0.2078176857 -0.1318684013 0)
(-0.1908202042 -0.173267537 2.419962706e-22)
(-0.1616303128 -0.2002509821 5.771869261e-24)
(-0.1211636419 -0.2040042813 -5.857944921e-24)
(-0.07384815217 -0.1772054992 1.547505302e-22)
(-0.02971708656 -0.1188600439 -5.432626426e-24)
(-0.002179466795 -0.04005262471 0)
(-0.0002117853462 0.0467135638 0)
(-0.01125006922 0.1105430582 0)
(-0.0281561848 0.1497265222 -5.022070883e-22)
(-0.04874448639 0.170142008 -1.880759475e-23)
(-0.0710002617 0.1766163469 2.038102538e-23)
(-0.09399363413 0.1724445262 -2.014038294e-23)
(-0.1171423482 0.1594807951 -2.316554932e-23)
(-0.1400167663 0.1384763583 -3.029343756e-22)
(-0.1621316932 0.1095141983 6.698312358e-23)
(-0.1827947519 0.0724522292 4.512454112e-23)
(-0.2009824514 0.0273517143 -4.576974353e-23)
(-0.2152259221 -0.02508272744 0)
(-0.2235550266 -0.08297773018 -7.837002867e-23)
(-0.2234618369 -0.1427187043 0)
(-0.2120663271 -0.1981741333 -3.738940942e-22)
(-0.1867416672 -0.2400689074 5.24382697e-22)
(-0.1464420805 -0.2560690037 0)
(-0.09394429397 -0.2331136855 -1.493079891e-22)
(-0.04021928072 -0.1639563502 1.936606078e-22)
(-0.003201017035 -0.05860884468 -3.410589572e-22)
(-0.0002016288822 0.05297314109 0)
(-0.01067300902 0.1248106642 9.181971169e-22)
(-0.02628517195 0.1687336186 -2.440426234e-23)
(-0.04501200253 0.1916358569 9.192425658e-22)
(-0.06494704865 0.1992828286 -2.511810687e-23)
(-0.08536748964 0.1956024332 2.838515707e-23)
(-0.1059319244 0.1827825604 -2.812604764e-23)
(-0.1264939776 0.1616544224 -1.660725431e-23)
(-0.1469014746 0.1321745767 -5.259631307e-22)
(-0.1668478257 0.09389697918 -8.905614047e-24)
(-0.185732459 0.04640819812 9.659134278e-24)
(-0.2024803488 -0.0102338042 3.312769435e-22)
(-0.2154174634 -0.07499284668 -5.820106e-22)
(-0.2220225539 -0.1450247811 0)
(-0.2188041778 -0.2146688231 8.88613999e-22)
(-0.2016260102 -0.2739937971 -4.93982757e-22)
(-0.1668635586 -0.3075731502 -1.571883606e-23)
(-0.114021341 -0.2953737521 0)
(-0.05288428614 -0.2195747206 -1.889255651e-22)
(-0.004749108937 -0.08377061921 3.359663637e-22)
(-0.0003643029255 0.05902077876 1.55086769e-23)
(-0.01049644548 0.1379821432 -8.76334037e-22)
(-0.0244153471 0.1856721819 -1.156963375e-21)
(-0.0402693867 0.2101293957 -8.628130694e-22)
(-0.05631003716 0.218226154 0)
(-0.07215183201 0.2146115473 3.513464197e-23)
(-0.0877959601 0.2018735781 -7.294158079e-23)
(-0.1034604691 0.1809971156 5.867318162e-23)
(-0.1194029823 0.1518984864 3.021053894e-22)
(-0.1357980785 0.1139158556 -1.128091818e-23)
(-0.1526133616 0.06621676522 0)
(-0.1694572716 0.008181047876 -3.603589483e-22)
(-0.1852809493 -0.0601550495 7.515062582e-22)
(-0.1980492154 -0.1372691673 8.831070566e-22)
(-0.2043581562 -0.2189200845 -5.296030714e-22)
(-0.199100215 -0.2959646697 5.162172288e-22)
(-0.1760618365 -0.3514002482 1.077928909e-23)
(-0.130089394 -0.358408197 -1.095239069e-23)
(-0.06688785562 -0.284322079 -8.223824289e-23)
(-0.007083260515 -0.1169940397 0)
(-0.0009096914122 0.06539849166 -1.911338067e-23)
(-0.01167688837 0.1502765578 -1.326873047e-21)
(-0.02389091927 0.20005878 1.094147443e-21)
(-0.03601662126 0.2244136436 6.734448476e-22)
(-0.04657730702 0.2316510301 6.014190756e-22)
(-0.05577546484 0.2272327332 6.643453469e-22)
(-0.06411824952 0.2141726062 -4.458312903e-23)
(-0.07228198973 0.1936466197 -3.461080836e-22)
(-0.08097655077 0.1656020774 2.15200815e-22)
(-0.09087903784 0.1292718409 0)
(-0.1025619881 0.08353342591 0)
(-0.1163693869 0.02720376911 2.655247212e-22)
(-0.1321658264 -0.040615761 8.194681539e-23)
(-0.1489315311 -0.1200082029 -2.821319718e-22)
(-0.1641338462 -0.2089252333 -5.41093204e-23)
(-0.172791988 -0.3006941586 1.302005404e-22)
(-0.1670339543 -0.3793274494 -3.400067261e-22)
(-0.1365306403 -0.4136395457 -1.597718003e-23)
(-0.0801828 -0.3538275993 8.212585343e-23)
(-0.01050760555 -0.1594106265 -6.032836855e-22)
(-0.002260612225 0.07348751029 0)
(-0.01580470356 0.1626483001 2.145734399e-21)
(-0.02665298505 0.2117847113 0)
(-0.03422740942 0.2333880682 -1.351720287e-21)
(-0.03759931903 0.2377701449 6.184412315e-23)
(-0.03800329487 0.2312497736 -6.192622897e-22)
(-0.0366899412 0.2171858435 -4.75596343e-22)
(-0.03489824439 0.1968912629 8.300675473e-22)
(-0.03379662808 0.1703338725 -1.885561748e-22)
(-0.03450713562 0.1367233752 0)
(-0.03812402254 0.09479927966 0)
(-0.04565795871 0.0430462452 2.410795561e-23)
(-0.0579156584 -0.02013402737 -6.006888315e-22)
(-0.07515300023 -0.09620268498 -4.309341028e-22)
(-0.09645794272 -0.1855519224 4.63768027e-22)
(-0.1183513604 -0.2853531546 -6.488276871e-22)
(-0.133275307 -0.3838348646 9.118667498e-23)
(-0.1265373212 -0.4504318655 2.941410262e-23)
(-0.0889923085 -0.4198496916 5.660710494e-22)
(-0.01526922267 -0.2111697843 6.021468321e-22)
(-0.005180997281 0.0859797935 0)
(-0.02525668184 0.1766266098 1.465607344e-22)
(-0.03483679386 0.2205920387 -4.916883108e-23)
(-0.03640449145 0.2354809181 7.642480015e-22)
(-0.03019069665 0.2343356004 -7.004942716e-22)
(-0.01917292339 0.2241559881 4.746189314e-23)
(-0.005623122204 0.2083493815 -1.018577223e-22)
(0.008561086502 0.1881223869 -3.389665556e-22)
(0.02179006683 0.1633909218 2.062708662e-22)
(0.0326191248 0.1333254331 0)
(0.03957622439 0.09664308179 0)
(0.04116228107 0.05174344849 -2.902535486e-22)
(0.03577755731 -0.003252274692 0)
(0.02197522581 -0.0705805442 -5.512020432e-22)
(-0.001270694571 -0.152570779 -1.491900724e-23)
(-0.03310962156 -0.2505925241 2.55957933e-23)
(-0.06909629052 -0.3599317785 2.202839462e-22)
(-0.09228084456 -0.457540138 4.789639034e-24)
(-0.08718194654 -0.4698103488 -5.789699995e-22)
(-0.0210313808 -0.2698955374 0)
(-0.01111636718 0.1085974379 0)
(-0.04248997893 0.1947139834 -8.848069722e-22)
(-0.04795766651 0.2258170961 -5.410841553e-22)
(-0.03919932389 0.2282102341 4.543634745e-22)
(-0.01878378785 0.2182292566 -1.710083182e-24)
(0.007657544498 0.2028188227 -4.560823848e-23)
(0.03667226524 0.1847595746 5.696356206e-22)
(0.06582179335 0.1647104275 -2.766739541e-23)
(0.09326295879 0.1423125741 -2.069665851e-22)
(0.1173810181 0.1166283084 3.142062295e-23)
(0.1365384903 0.08641309753 -3.425772027e-23)
(0.1489598812 0.05017889597 -3.690466554e-23)
(0.1525213009 0.006161596081 3.205532995e-22)
(0.1449312363 -0.0479589411 6.119423059e-22)
(0.1235112639 -0.1153032989 -5.101020063e-22)
(0.08633144776 -0.2004180011 -1.615982024e-22)
(0.03198749551 -0.30677945 1.531360849e-22)
(-0.02362366001 -0.4239824982 7.293762237e-23)
(-0.06492511856 -0.4871598958 1.913303167e-21)
(-0.02509985293 -0.3291533925 2.95500455e-21)
(-0.02004676921 0.1460730627 -4.390092688e-23)
(-0.06416450363 0.2112953833 4.41726476e-23)
(-0.05070372313 0.2177289739 1.000156995e-21)
(-0.01934362931 0.2014661932 -8.267445496e-24)
(0.02414067381 0.1809054694 0)
(0.07153603025 0.1606912566 4.363508625e-23)
(0.119064228 0.1416478898 -2.273732433e-22)
(0.164470041 0.1233171436 -9.027463205e-23)
(0.2062182087 0.1048114271 3.680534973e-23)
(0.2429575424 0.08507180891 -1.701575046e-23)
(0.2732144417 0.06296247169 3.429825163e-23)
(0.2952479801 0.03726432513 -6.592437038e-23)
(0.3066922054 0.006536621706 -9.303614189e-23)
(0.3049696996 -0.03087620411 1.516999518e-22)
(0.286390264 -0.07786166808 0)
(0.247054131 -0.139929179 1.505528151e-22)
(0.1810900561 -0.2266295847 2.560011837e-22)
(0.09604288328 -0.3443890155 0)
(-0.006698444018 -0.4552205107 -3.675652302e-21)
(-0.01922421755 -0.3777532857 -2.892633504e-21)
(-0.02591941394 0.2276832185 -9.51413018e-22)
(-0.0399830873 0.2238218856 -1.388948651e-22)
(0.03656119412 0.18105833 -2.335504564e-22)
(0.1090494164 0.1451052652 -1.193697501e-22)
(0.181717293 0.1172436217 -4.295683468e-23)
(0.2490062506 0.09627809366 9.782677446e-23)
(0.3100299798 0.08002426498 -1.408513508e-22)
(0.3646166162 0.06656759181 1.297104219e-22)
(0.412620608 0.05449158211 -8.619656587e-23)
(0.4536203881 0.04270910054 1.132178388e-25)
(0.4867835183 0.03032343654 1.527678959e-23)
(0.5107412924 0.0165296738 7.996905105e-23)
(0.523656575 0.0005372110768 -1.811065379e-22)
(0.5231773854 -0.01863305494 -1.617101484e-22)
(0.5052305672 -0.04286424278 -4.262725592e-23)
(0.4658702596 -0.07633196863 0)
(0.3952687455 -0.1286088307 -1.846503707e-22)
(0.2916064237 -0.2208467788 8.148787726e-22)
(0.1197450977 -0.3525016617 1.631605869e-21)
(0.02670536813 -0.377549736 2.172657919e-21)
(0.2142895506 0.1347448225 9.86490722e-22)
(0.2776314419 0.09870516637 0)
(0.4316595895 0.05810420965 -2.594259715e-22)
(0.5304750843 0.03846262899 -1.741613348e-22)
(0.6016963026 0.026234109 0)
(0.6571191022 0.01831913054 -6.008779377e-23)
(0.7015200746 0.01313591914 6.37762384e-23)
(0.7376025957 0.009542077556 -1.800042451e-23)
(0.7669349957 0.006804470139 2.885798355e-23)
(0.7902088273 0.004464805633 2.314906474e-23)
(0.8074538429 0.002221425324 0)
(0.8182607904 -0.0001499425717 -2.872916561e-23)
(0.8216490147 -0.002723709335 0)
(0.8162388652 -0.0057125639 2.738014889e-23)
(0.7991330796 -0.009611321171 1.421604781e-23)
(0.7679986118 -0.0150025345 -5.799474377e-23)
(0.7106556342 -0.02502522684 -2.535675845e-22)
(0.6235184356 -0.04204288621 -6.918120723e-22)
(0.423009098 -0.09182971414 0)
(0.2705674589 -0.1524021992 -2.119485734e-21)
)


// ************************************************************************* //
