/*--------------------------------*- C++ -*----------------------------------*\
  =========                 |
  \\      /  F ield         | OpenFOAM: The Open Source CFD Toolbox
   \\    /   O peration     | Website:  https://openfoam.org
    \\  /    A nd           | Version:  13
     \\/     M anipulation  |
\*---------------------------------------------------------------------------*/
FoamFile
{
    format      ascii;
    class       vectorField;
    location    "28.31";
    object      U_all;
}
// * * * * * * * * * * * * * * * * * * * * * * * * * * * * * * * * * * * * * //


400
(
(1.093880453e-05 -3.787542206e-05 0)
(-0.000666162756 0.0004130312409 -1.547004697e-23)
(-0.002185376611 0.000920382679 0)
(-0.004047802667 0.001312765126 0)
(-0.005971810048 0.001535048787 6.839089292e-25)
(-0.007762701286 0.001569831585 4.151943938e-24)
(-0.009284444244 0.001423548837 -7.353409636e-24)
(-0.01043582793 0.00111971063 7.551163188e-24)
(-0.01113669721 0.0006960734822 -2.096958309e-25)
(-0.01132700012 0.0002030739717 -3.997045207e-24)
(-0.01097167512 -0.0003002306352 5.806174767e-24)
(-0.01007224983 -0.0007475079868 -5.931638329e-23)
(-0.008679824389 -0.00107555163 -6.554811734e-23)
(-0.006902820427 -0.001233034235 -7.786546068e-23)
(-0.004910727307 -0.001192632362 4.574971208e-24)
(-0.00292723921 -0.0009619198229 -4.139349165e-24)
(-0.001205318347 -0.0005912163694 -1.999684199e-22)
(-1.908994589e-05 -0.0001698910134 0)
(0.0005181386424 0.0001720763692 1.513465836e-25)
(0.0002227475653 0.0003059731273 -2.602860177e-24)
(-0.0002633925371 0.0008288997663 1.386376921e-25)
(-0.002703310811 0.003383775781 1.556727357e-23)
(-0.006907214877 0.005604414641 1.548617424e-25)
(-0.01195218316 0.007008108129 -8.482332029e-25)
(-0.01713483479 0.007553675466 1.160209398e-24)
(-0.02197508254 0.00729410953 1.304813449e-23)
(-0.0261104415 0.006321823043 1.408821484e-24)
(-0.02926529715 0.004754146075 -7.302354096e-24)
(-0.0312263679 0.002737131673 1.016268152e-23)
(-0.03184165622 0.0004524137947 4.512767191e-24)
(-0.03102729056 -0.001884108553 -6.321667014e-24)
(-0.02879289075 -0.004022970709 2.961393962e-24)
(-0.02527116894 -0.00570828242 3.89664445e-23)
(-0.02073179989 -0.006707336545 -1.95546731e-24)
(-0.01558953993 -0.006854079125 3.755907698e-24)
(-0.0103850996 -0.006097425315 -9.745881312e-23)
(-0.005730273926 -0.00454617413 9.642562619e-23)
(-0.002233385216 -0.002507430356 -3.969050566e-25)
(-0.0001817916389 -0.0005023975988 4.069150745e-25)
(8.343366393e-05 0.0006099062105 0)
(-0.0004188252557 0.002935022225 -2.913738894e-25)
(-0.004647832171 0.008803879048 1.706438269e-23)
(-0.0113718228 0.01324022921 -8.241788315e-24)
(-0.01932703964 0.01579181645 -2.068757239e-25)
(-0.02747375098 0.01652977347 2.032337994e-25)
(-0.03511732129 0.01564421332 7.463680019e-27)
(-0.04171290381 0.01335981772 -1.240693038e-24)
(-0.04683512417 0.009919672933 -4.564206095e-25)
(-0.05014927824 0.005602402421 -1.06413869e-23)
(-0.05141171904 0.0007444569816 0)
(-0.05047737294 -0.004241684957 0)
(-0.04733657086 -0.008887044633 2.672120338e-23)
(-0.04215887423 -0.01268159789 2.81407701e-23)
(-0.03531406747 -0.01513587316 -1.646873009e-24)
(-0.02738975411 -0.01586173392 4.848274666e-23)
(-0.01916993769 -0.01467321858 9.424037578e-23)
(-0.01156085317 -0.01169353327 3.980625553e-23)
(-0.00546539862 -0.007450726446 4.157842728e-25)
(-0.001451103112 -0.002936066267 1.065565546e-25)
(-9.072621525e-05 0.0002258483784 0)
(-0.000502458465 0.006045255313 -4.253100659e-23)
(-0.006402656726 0.01637050963 -1.696655097e-23)
(-0.01553481276 0.02355899081 8.168658019e-24)
(-0.02627875884 0.0274412371 0)
(-0.03728695581 0.02832063632 0)
(-0.04768972897 0.02658738363 0)
(-0.05679587858 0.02263093791 -4.532940878e-26)
(-0.06405301881 0.0168359276 -2.125434954e-24)
(-0.06900996298 0.009622131967 0)
(-0.07130743699 0.001491113398 1.638121638e-24)
(-0.07070774077 -0.006936337318 2.804463931e-25)
(-0.06712967845 -0.01492993897 -2.812316365e-25)
(-0.06069844555 -0.02166697851 0)
(-0.05180701748 -0.02631573614 4.135584267e-23)
(-0.04114955779 -0.02816040676 -4.683916734e-23)
(-0.02971946545 -0.02677347516 -2.764472709e-23)
(-0.01873703306 -0.02221513897 -3.965849098e-23)
(-0.009487969314 -0.01521914571 7.795843841e-25)
(-0.002976865888 -0.007298193544 9.785012219e-23)
(-0.0002318773053 -0.000866195565 0)
(-0.0005316056704 0.01009486625 4.273787101e-23)
(-0.007983480815 0.02595181177 4.77853761e-25)
(-0.01939660349 0.03642830005 -4.669397374e-25)
(-0.03282337196 0.04185462017 0)
(-0.04664625882 0.04289427898 7.77620547e-25)
(-0.05985150558 0.04020023813 -7.668385552e-25)
(-0.07163199362 0.03434702911 3.670160919e-23)
(-0.08132650245 0.02585639846 1.845991062e-23)
(-0.08836495477 0.01527290341 6.232915313e-24)
(-0.09225363891 0.003246231829 -1.640030072e-24)
(-0.0926027842 -0.009407593889 0)
(-0.0891746233 -0.0216744147 4.374143572e-25)
(-0.08195897585 -0.03236699727 1.010206942e-23)
(-0.07126817785 -0.04021200895 -4.351763923e-23)
(-0.05781966599 -0.04401998537 1.93439863e-24)
(-0.04278546269 -0.04294788228 4.222224166e-23)
(-0.02775427744 -0.03683316679 -3.849700936e-25)
(-0.01455051041 -0.02652703734 0)
(-0.004859426802 -0.01408449204 5.436470259e-23)
(-0.0003641440718 -0.002846967503 -2.564517501e-22)
(-0.0005272142267 0.01499905982 9.837085677e-23)
(-0.009377799011 0.03738968338 -4.904333571e-25)
(-0.02288152226 0.05170149887 0)
(-0.03882992703 0.0589410262 0)
(-0.0553858608 0.06025496486 -8.729902418e-23)
(-0.0714278818 0.0566183292 -8.496920181e-23)
(-0.08606551085 0.04880116243 -4.065207029e-23)
(-0.0985497234 0.03743947369 -1.503290977e-23)
(-0.108193333 0.02315972247 -5.363644386e-24)
(-0.1143432596 0.006709779901 -8.171996829e-24)
(-0.1164034383 -0.01093261618 6.597917738e-24)
(-0.1138926317 -0.02848897053 8.820804957e-24)
(-0.1065477033 -0.04436985374 -1.89226705e-23)
(-0.09446719234 -0.05675265902 4.582961973e-24)
(-0.07826789118 -0.06378230657 0)
(-0.0592284578 -0.06393434342 -1.575457693e-23)
(-0.03933949819 -0.05653768391 -2.348143184e-26)
(-0.02114171888 -0.04235778425 0)
(-0.007318644565 -0.02398216078 -1.520097863e-22)
(-0.0005216104679 -0.005925534739 6.055132556e-22)
(-0.000499077274 0.02064545379 -9.770080051e-23)
(-0.0105293831 0.05045367872 2.831519601e-22)
(-0.02582926581 0.06912417766 1.526630079e-22)
(-0.04402086625 0.07849155268 3.618570655e-24)
(-0.06310666946 0.08029377143 -7.3191775e-23)
(-0.08190314311 0.07587956347 9.041233357e-23)
(-0.09947657514 0.06621623633 -3.589499858e-24)
(-0.1150215605 0.05201652011 -1.728794875e-24)
(-0.1277506673 0.03392341857 2.523596324e-24)
(-0.1368459798 0.01270243443 7.379819001e-24)
(-0.1414697865 -0.01058746562 -6.497844693e-24)
(-0.1408236105 -0.03445966315 -9.781646215e-24)
(-0.1342734889 -0.05692696267 -3.26176598e-23)
(-0.1215440543 -0.07553229936 -3.657555711e-23)
(-0.1029664666 -0.08754171384 5.637979548e-25)
(-0.07976309271 -0.09039126384 0)
(-0.05426641767 -0.08244444939 0)
(-0.02987138577 -0.0639768913 -2.905199369e-24)
(-0.0106627704 -0.03798770444 2.969629409e-24)
(-0.0007350860299 -0.01050084788 1.027858956e-22)
(-0.0004479141937 0.02687214867 0)
(-0.01134911934 0.06480671638 2.00195193e-22)
(-0.02801571762 0.08829503532 8.962019912e-23)
(-0.04799810027 0.1001222592 0)
(-0.06920535272 0.1027064639 1.569652725e-22)
(-0.09044288776 0.09781474664 0)
(-0.1107821753 0.08661022025 -1.428253053e-22)
(-0.1294082697 0.06983897375 6.514783917e-24)
(-0.1454759803 0.04808209931 0)
(-0.1580339594 0.02201764577 0)
(-0.1660121233 -0.007334051026 -1.374200516e-24)
(-0.1682659708 -0.03838774131 -9.314671964e-25)
(-0.1637053592 -0.06883888501 1.491704225e-22)
(-0.1515198776 -0.0955817335 -4.70461165e-23)
(-0.1315126053 -0.1148287759 -2.560128167e-24)
(-0.1045589377 -0.1225692855 1.533888031e-24)
(-0.07309302994 -0.1155508831 -1.558084013e-24)
(-0.04134994593 -0.09283048163 0)
(-0.01525220015 -0.05740729868 3.203352942e-24)
(-0.001044299697 -0.01714704896 -1.01279495e-21)
(-0.0003744678815 0.03346262561 0)
(-0.01174997653 0.07998819857 -1.128064428e-22)
(-0.02920686248 0.1086377898 -6.190657984e-22)
(-0.05031707371 0.1232219858 -3.755052972e-22)
(-0.07296263516 0.1269083429 0)
(-0.09598891286 0.1219243769 4.119182487e-22)
(-0.1185265331 0.1096339356 1.260805515e-22)
(-0.1398137299 0.0907818426 -5.58139952e-24)
(-0.159021177 0.06581365589 5.553774592e-24)
(-0.1751450861 0.03520888053 0)
(-0.186954975 -0.0001963470957 2.911937419e-23)
(-0.1930162581 -0.03889684422 4.695377481e-24)
(-0.1917800272 -0.07843793495 -1.076662766e-22)
(-0.1817865495 -0.1151853998 8.002808869e-23)
(-0.162056251 -0.1442587026 -2.419447329e-22)
(-0.1327055445 -0.1598536158 0)
(-0.09577839687 -0.1563101609 0)
(-0.05601603604 -0.1302972288 0)
(-0.02147847149 -0.08381082055 0)
(-0.001500373443 -0.02665500741 5.571517924e-22)
(-0.0002873960899 0.04016032248 0)
(-0.01169355463 0.09543503974 -3.492769775e-22)
(-0.02924425852 0.129405941 8.932279969e-22)
(-0.05060924115 0.1469283759 3.61693343e-22)
(-0.07370048175 0.1519733855 0)
(-0.09745106205 0.1472745051 -3.862297182e-22)
(-0.1211064483 0.1344181853 -3.174251522e-23)
(-0.1440318801 0.114138659 3.332946771e-22)
(-0.165513685 0.08669975577 1.769392609e-22)
(-0.1846241933 0.05229128808 -4.059970711e-23)
(-0.2001319162 0.01141755999 1.656805272e-23)
(-0.2104615828 -0.03471353258 -8.264742709e-24)
(-0.2137202014 -0.08376466201 3.371685714e-22)
(-0.2078209169 -0.1318744516 0)
(-0.1908232556 -0.1732742915 2.42061621e-22)
(-0.1616330395 -0.2002579705 5.773847582e-24)
(-0.1211658387 -0.204010878 -5.859952728e-24)
(-0.07384961224 -0.1772109308 1.548138786e-22)
(-0.02971774047 -0.1188635461 -5.434517289e-24)
(-0.002179532433 -0.04005376416 0)
(-0.0002117307568 0.04671593604 0)
(-0.01125002073 0.1105487055 0)
(-0.02815623494 0.1497340272 -5.022498617e-22)
(-0.04874474318 0.1701501589 -1.880912509e-23)
(-0.07100076798 0.1766241751 2.038288029e-23)
(-0.09399437159 0.1724513145 -2.014221597e-23)
(-0.1171432539 0.15948606 -2.316785645e-23)
(-0.1400177576 0.1384798221 -3.02967922e-22)
(-0.1621326943 0.1095157586 6.698565342e-23)
(-0.1827957158 0.07245192321 4.512971912e-23)
(-0.2009833752 0.02734968151 -4.577510746e-23)
(-0.2152268455 -0.02508628452 0)
(-0.2235560252 -0.08298256821 -7.838889257e-23)
(-0.2234629925 -0.1427245827 0)
(-0.2120676778 -0.1981807852 -3.73938439e-22)
(-0.1867431615 -0.2400759829 5.244620076e-22)
(-0.1464435434 -0.2560759745 0)
(-0.09394545059 -0.2331197594 -1.493694357e-22)
(-0.04021989055 -0.1639605438 1.937240257e-22)
(-0.003201086715 -0.05861033873 -3.411220683e-22)
(-0.000201555477 0.05297540738 0)
(-0.01067268303 0.1248161618 9.182566224e-22)
(-0.02628458247 0.1687410086 -2.440596277e-23)
(-0.04501122959 0.191643929 9.193037332e-22)
(-0.06494615092 0.1992905812 -2.51199576e-23)
(-0.08536648284 0.1956091159 2.838745956e-23)
(-0.105930788 0.1827876749 -2.812832912e-23)
(-0.1264926747 0.1616577009 -1.660864694e-23)
(-0.1468999785 0.132175953 -5.260065078e-22)
(-0.1668461455 0.09389654482 -8.906354018e-24)
(-0.185730656 0.04640615743 9.65991323e-24)
(-0.2024785258 -0.01023718833 3.312995727e-22)
(-0.2154157892 -0.07499732779 -5.820568205e-22)
(-0.2220212305 -0.1450301358 0)
(-0.2188033685 -0.2146748759 8.886986878e-22)
(-0.2016257943 -0.2740003563 -4.940572885e-22)
(-0.1668638599 -0.3075798764 -1.572121601e-23)
(-0.1140218997 -0.2953799712 0)
(-0.05288473265 -0.2195793498 -1.889879159e-22)
(-0.004749175221 -0.08377242551 3.360283798e-22)
(-0.0003642156017 0.05902278474 1.550963475e-23)
(-0.01049585521 0.137987166 -8.763908001e-22)
(-0.02441413335 0.1856790612 -1.157027661e-21)
(-0.04026759524 0.2101369854 -8.628704677e-22)
(-0.05630774494 0.218233456 0)
(-0.07214910042 0.2146177966 3.513705025e-23)
(-0.08779282947 0.2018782694 -7.294662731e-23)
(-0.1034569657 0.1809999904 5.867726711e-23)
(-0.1193991405 0.1518995154 3.021282088e-22)
(-0.1357939619 0.1139151824 -1.128167978e-23)
(-0.1526090732 0.06621465727 0)
(-0.1694529795 0.00817783011 -3.603839236e-22)
(-0.1852768617 -0.06015908794 7.515503668e-22)
(-0.1980455675 -0.1372737952 8.831525669e-22)
(-0.2043552055 -0.2189251883 -5.296458307e-22)
(-0.1990981639 -0.2959702053 5.162532832e-22)
(-0.1760607469 -0.3514061086 1.078137144e-23)
(-0.1300891175 -0.3584139492 -1.095450646e-23)
(-0.06688800397 -0.2843267368 -8.218250715e-23)
(-0.00708331021 -0.1169960479 0)
(-0.0009095961332 0.06540010045 -1.911439046e-23)
(-0.01167607617 0.1502808081 -1.326935608e-21)
(-0.02388916435 0.2000647795 1.09420792e-21)
(-0.03601393099 0.2244203754 6.734773597e-22)
(-0.04657377837 0.2316575443 6.014492129e-22)
(-0.05577121691 0.2272382781 6.643803395e-22)
(-0.06411340619 0.2141766827 -4.458573818e-23)
(-0.07227666059 0.1936489706 -3.461264547e-22)
(-0.08097084731 0.1656027024 2.152119778e-22)
(-0.09087308939 0.1292709113 0)
(-0.1025559328 0.08353124647 0)
(-0.1163633917 0.02720070395 2.655355019e-22)
(-0.1321600829 -0.04061935772 8.194384477e-23)
(-0.1489262652 -0.1200120732 -2.821542893e-22)
(-0.1641293172 -0.2089292762 -5.411171578e-23)
(-0.1727884556 -0.300698415 1.301956145e-22)
(-0.1670315941 -0.3793320135 -3.400354871e-22)
(-0.1365294732 -0.4136442687 -1.59523294e-23)
(-0.08018255041 -0.3538317957 8.207019384e-23)
(-0.01050762008 -0.159412658 -6.032424819e-22)
(-0.002260517003 0.07348861831 0)
(-0.01580374429 0.1626515418 2.145829089e-21)
(-0.02665084472 0.2117895289 0)
(-0.0342240533 0.2333936347 -1.351778953e-21)
(-0.03759485881 0.2377756089 6.184113349e-23)
(-0.03799790828 0.2312544346 -6.192950638e-22)
(-0.03668385279 0.2171892316 -4.756187571e-22)
(-0.03489165566 0.1968930858 8.301087476e-22)
(-0.03378973204 0.1703341731 -1.885660489e-22)
(-0.03450013774 0.1367223104 0)
(-0.03811708843 0.09479714895 0)
(-0.04565124315 0.04304341665 2.410644583e-23)
(-0.05790929342 -0.02013719381 -6.007108276e-22)
(-0.07514713755 -0.09620587718 -4.309499065e-22)
(-0.09645276728 -0.1855550114 4.637796883e-22)
(-0.1183470995 -0.2853561823 -6.488583178e-22)
(-0.1332721577 -0.3838380308 9.119691038e-23)
(-0.1265354641 -0.4504352128 2.938798566e-23)
(-0.08899166697 -0.4198529888 5.660560513e-22)
(-0.01526918641 -0.2111716136 6.021057061e-22)
(-0.005180915531 0.08598035042 0)
(-0.02525569927 0.1766287077 1.46558404e-22)
(-0.0348345239 0.2205954802 -4.917055326e-23)
(-0.03640085142 0.2354851115 7.642778775e-22)
(-0.03018579161 0.2343398415 -7.005234256e-22)
(-0.01916696295 0.2241596642 4.746388318e-23)
(-0.005616457536 0.2083520558 -1.018595558e-22)
(0.008568210046 0.1881238224 -3.389823317e-22)
(0.02179741879 0.1633910891 2.062788584e-22)
(0.03262638853 0.1333244593 0)
(0.03958321288 0.09664122225 0)
(0.04116884314 0.05174103459 -2.90262842e-22)
(0.0357836422 -0.003254887452 0)
(0.02198075896 -0.07058310676 -5.512124069e-22)
(-0.001265807232 -0.1525730962 -1.492299289e-23)
(-0.03310550802 -0.2505945806 2.559668532e-23)
(-0.06909300472 -0.3599337614 2.203018523e-22)
(-0.09227869337 -0.4575420718 4.788816088e-24)
(-0.08718107136 -0.4698125148 -5.789537157e-22)
(-0.02103128942 -0.2698969514 0)
(-0.0111163239 0.1085974872 0)
(-0.04248917542 0.1947149732 -8.848341397e-22)
(-0.04795567785 0.225819148 -5.410965629e-22)
(-0.03919600827 0.2282130101 4.543745944e-22)
(-0.01877920146 0.2182322289 -1.710001366e-24)
(0.007663204151 0.2028215067 -4.560967763e-23)
(0.0366786761 0.1847615805 5.69657513e-22)
(0.06582864156 0.1647115902 -2.766843472e-23)
(0.09326993835 0.142312775 -2.069747174e-22)
(0.1173878237 0.1166276247 3.142166599e-23)
(0.1365449075 0.0864117085 -3.425871229e-23)
(0.148965769 0.05017705016 -3.690551023e-23)
(0.1525265461 0.006159564129 3.205597043e-22)
(0.1449358039 -0.04796088881 6.119536014e-22)
(0.1235152031 -0.1153049641 -5.101106228e-22)
(0.08633469448 -0.200419308 -1.61600917e-22)
(0.03199033337 -0.3067804602 1.53135373e-22)
(-0.02362163156 -0.4239835141 7.293718282e-23)
(-0.06492429318 -0.487161051 1.913300553e-21)
(-0.02509973937 -0.3291542963 2.955001578e-21)
(-0.02004679871 0.1460727925 -4.390165189e-23)
(-0.06416413392 0.211295552 4.417337677e-23)
(-0.0507025367 0.2177298713 1.000175967e-21)
(-0.01934140748 0.2014677018 -8.270062849e-24)
(0.02414399871 0.1809072648 0)
(0.07154037026 0.160692993 4.363642565e-23)
(0.1190693384 0.141649276 -2.273810112e-22)
(0.1644756353 0.1233180106 -9.027787948e-23)
(0.2062239821 0.1048116785 3.680668875e-23)
(0.2429631921 0.08507146646 -1.701630785e-23)
(0.2732197201 0.06296163876 3.429924483e-23)
(0.2952526851 0.03726316477 -6.592597062e-23)
(0.3066962998 0.006535322358 -9.303813355e-23)
(0.3049731511 -0.03087745527 1.517023445e-22)
(0.2863930712 -0.07786270599 0)
(0.247056367 -0.139929896 1.505556471e-22)
(0.181091866 -0.226629911 2.560018263e-22)
(0.09604423527 -0.3443894157 0)
(-0.006697752458 -0.4552209375 -3.675649335e-21)
(-0.01922410432 -0.3777536809 -2.892630709e-21)
(-0.02591949672 0.2276829347 -9.514175958e-22)
(-0.03998321931 0.2238216904 -1.388964752e-22)
(0.03656134173 0.1810585019 -2.335550639e-22)
(0.1090501606 0.1451058033 -1.193725882e-22)
(0.1817188215 0.1172443972 -4.295757823e-23)
(0.2490086117 0.096278915 9.782966544e-23)
(0.3100330658 0.08002496637 -1.40856179e-22)
(0.3646202255 0.06656806106 1.297150505e-22)
(0.4126244879 0.05449175473 -8.619967878e-23)
(0.4536242678 0.04270897376 1.132186666e-25)
(0.486787157 0.03032305806 1.527720515e-23)
(0.5107445043 0.01652912575 7.997100883e-23)
(0.5236592237 0.0005366284461 -1.811101018e-22)
(0.5231794031 -0.01863362143 -1.617125532e-22)
(0.5052320489 -0.04286469985 -4.262826633e-23)
(0.4658713015 -0.07633225547 0)
(0.3952694999 -0.1286089207 -1.846505047e-22)
(0.2916069919 -0.2208468046 8.148791066e-22)
(0.1197454422 -0.3525016855 1.631606132e-21)
(0.02670545535 -0.3775497877 2.172658151e-21)
(0.2142894641 0.134744737 9.864957715e-22)
(0.2776311722 0.09870505665 0)
(0.4316592891 0.05810415817 -2.594292654e-22)
(0.5304749604 0.03846264605 -1.741640056e-22)
(0.6016965317 0.02623417765 0)
(0.6571197668 0.0183192177 -6.008954481e-23)
(0.7015211501 0.01313599388 6.377853932e-23)
(0.7376039789 0.009542118403 -1.800116469e-23)
(0.7669365387 0.006804464708 2.885913367e-23)
(0.790210366 0.004464754014 2.314991044e-23)
(0.8074552283 0.002221337112 0)
(0.8182619138 -0.000150053312 -2.872992336e-23)
(0.8216498134 -0.002723825524 0)
(0.8162393275 -0.005712651485 2.738084862e-23)
(0.7991332751 -0.009611372722 1.421633359e-23)
(0.7679986298 -0.01500254835 -5.799460044e-23)
(0.7106555843 -0.02502520402 -2.535677084e-22)
(0.6235184037 -0.04204285935 -6.918123371e-22)
(0.4230091012 -0.09182968628 0)
(0.2705674673 -0.1524021866 -2.119485961e-21)
)


// ************************************************************************* //
