/*--------------------------------*- C++ -*----------------------------------*\
  =========                 |
  \\      /  F ield         | OpenFOAM: The Open Source CFD Toolbox
   \\    /   O peration     | Website:  https://openfoam.org
    \\  /    A nd           | Version:  13
     \\/     M anipulation  |
\*---------------------------------------------------------------------------*/
FoamFile
{
    format      ascii;
    class       vectorField;
    location    "36.2";
    object      U_all;
}
// * * * * * * * * * * * * * * * * * * * * * * * * * * * * * * * * * * * * * //


400
(
(1.099513878e-05 -3.783956331e-05 0)
(-0.0006661068021 0.0004130410445 -1.55057274e-23)
(-0.002185378065 0.0009203936141 0)
(-0.004047834147 0.00131278131 0)
(-0.005971867007 0.001535065701 6.844543571e-25)
(-0.007762779371 0.001569846392 4.15147779e-24)
(-0.009284540569 0.001423561184 -7.371009266e-24)
(-0.01043593834 0.001119721541 7.533367989e-24)
(-0.01113681365 0.0006960828849 -2.09562947e-25)
(-0.01132711156 0.0002030797805 -3.994993981e-24)
(-0.01097177136 -0.0003002308982 5.804044917e-24)
(-0.01007232451 -0.000747514824 -5.929955916e-23)
(-0.008679875577 -0.00107556279 -6.553052651e-23)
(-0.006902849485 -0.001233045455 -7.784585852e-23)
(-0.004910736908 -0.001192639599 4.573748301e-24)
(-0.002927232583 -0.0009619211641 -4.13810401e-24)
(-0.001205300068 -0.0005912124016 -1.998880342e-22)
(-1.90685539e-05 -0.0001698839213 0)
(0.0005181545833 0.000172084776 1.510013337e-25)
(0.0002227518063 0.00030597845 -2.557885792e-24)
(-0.0002633680313 0.0008289589708 1.383564575e-25)
(-0.002703309811 0.003383835588 1.56035673e-23)
(-0.006907277475 0.00560449619 1.554247196e-25)
(-0.01195231822 0.007008204304 -8.493498453e-25)
(-0.01713504116 0.007553774159 1.161840174e-24)
(-0.02197534847 0.007294197461 1.306541417e-23)
(-0.02611075123 0.006321890528 1.392025401e-24)
(-0.02926563486 0.004754189045 -7.284996569e-24)
(-0.0312267175 0.002737149756 1.015419044e-23)
(-0.03184199928 0.0004524075232 4.510390536e-24)
(-0.03102760656 -0.001884140186 -6.319350533e-24)
(-0.02879316035 -0.004023024269 2.961996622e-24)
(-0.02527137822 -0.005708350661 3.895735242e-23)
(-0.02073194362 -0.006707407871 -1.954880962e-24)
(-0.01558962234 -0.006854140167 3.754699492e-24)
(-0.01038513217 -0.006097465234 -9.741728402e-23)
(-0.005730272276 -0.004546188105 9.638337368e-23)
(-0.00223336746 -0.002507421201 -3.962245204e-25)
(-0.0001817749756 -0.0005023745375 4.06217375e-25)
(8.34359967e-05 0.000609924211 0)
(-0.0004188248235 0.002935075639 -2.9110136e-25)
(-0.004647876694 0.008804008102 1.702861561e-23)
(-0.01137195826 0.01324041459 -8.275878995e-24)
(-0.01932728484 0.01579203158 -2.074500602e-25)
(-0.02747410799 0.01652999301 2.037980249e-25)
(-0.03511777688 0.01564441212 6.921835895e-27)
(-0.04171343383 0.01335997281 -1.224374262e-24)
(-0.04683569928 0.009919767804 -4.553809838e-25)
(-0.05014986859 0.005602430104 -1.063245574e-23)
(-0.05141229834 0.0007444192737 0)
(-0.05047791448 -0.004241778512 0)
(-0.04733704855 -0.008887181507 2.671173478e-23)
(-0.04215926865 -0.01268176181 2.813189923e-23)
(-0.03531436643 -0.01513604441 -1.646278063e-24)
(-0.02738995652 -0.01586189027 4.846257948e-23)
(-0.01917005459 -0.01467333882 9.420010347e-23)
(-0.01156090508 -0.01169360295 3.976525707e-23)
(-0.005465411113 -0.007450743642 4.144305242e-25)
(-0.001451098767 -0.00293604514 1.072568252e-25)
(-9.072632171e-05 0.0002258750228 0)
(-0.0005024639902 0.006045346125 -4.249573901e-23)
(-0.006402740191 0.01637074687 -1.693084044e-23)
(-0.01553502056 0.02355932311 8.202731355e-24)
(-0.02627911082 0.02744161093 0)
(-0.03728745233 0.0283210067 0)
(-0.04769035567 0.0265877134 0)
(-0.05679660868 0.02263119596 -4.476845933e-26)
(-0.06405381672 0.01683608943 -2.135022358e-24)
(-0.06901078954 0.009622182795 0)
(-0.07130825222 0.001491050853 1.635904374e-24)
(-0.07070850927 -0.006936500631 2.803032956e-25)
(-0.06713037102 -0.01493018212 -2.810881383e-25)
(-0.06069903753 -0.02166727226 0)
(-0.05180749175 -0.02631604663 4.133597185e-23)
(-0.04114990722 -0.02816069837 -4.681959263e-23)
(-0.02971969566 -0.02677371434 -2.762363111e-23)
(-0.01873716254 -0.02221530032 -3.961683443e-23)
(-0.009488026038 -0.01521922003 7.796014205e-25)
(-0.002976878556 -0.007298195315 9.789570669e-23)
(-0.000231878711 -0.0008661699469 0)
(-0.0005316131007 0.01009500952 4.270239345e-23)
(-0.007983590559 0.02595218266 4.784204314e-25)
(-0.019396869 0.03642881164 -4.674934652e-25)
(-0.03282381295 0.04185518804 0)
(-0.04664687171 0.04289483236 7.781699983e-25)
(-0.05985227238 0.040200722 -7.673803883e-25)
(-0.07163288539 0.03434740272 3.671939504e-23)
(-0.08132748183 0.02585663303 1.847860742e-23)
(-0.08836597898 0.01527298183 6.237915082e-24)
(-0.09225466309 0.003246150544 -1.637810224e-24)
(-0.09260376588 -0.009407824924 0)
(-0.08917552485 -0.02167476948 4.371146316e-25)
(-0.08195976591 -0.03236743709 1.009177999e-23)
(-0.07126883307 -0.04021248607 -4.349650062e-23)
(-0.05782017262 -0.04402044792 1.933122168e-24)
(-0.0427858192 -0.04294828015 4.218061047e-23)
(-0.0277544968 -0.0368334595 -3.843063831e-25)
(-0.01455061954 -0.02652720435 0)
(-0.004859460548 -0.01408454361 5.4365414e-23)
(-0.0003641474604 -0.002846954639 -2.564999744e-22)
(-0.0005272205684 0.01499926858 9.840673576e-23)
(-0.009377921093 0.03739020388 -4.9071584e-25)
(-0.02288181944 0.051702206 0)
(-0.03883042164 0.05894180583 0)
(-0.05538654783 0.06025572139 -8.731745338e-23)
(-0.07142874033 0.0566189878 -8.498713573e-23)
(-0.08606650961 0.04880166887 -4.067159869e-23)
(-0.09855082442 0.03743979251 -1.504200956e-23)
(-0.1081944939 0.02315983479 -5.36806325e-24)
(-0.1143444353 0.006709682456 -8.174519893e-24)
(-0.1164045841 -0.0109329113 6.600628268e-24)
(-0.113893705 -0.02848943478 8.825830101e-24)
(-0.1065486659 -0.04437044316 -1.892320566e-23)
(-0.09446801299 -0.05675331611 4.604320784e-24)
(-0.07826854742 -0.0637829648 0)
(-0.05922893906 -0.06393493424 -1.573273379e-23)
(-0.0393398094 -0.0565381469 -2.416955242e-26)
(-0.02114188302 -0.0423580809 0)
(-0.007318700711 -0.02398228976 -1.520566505e-22)
(-0.0005216159641 -0.005925544977 6.056112167e-22)
(-0.0004990818071 0.02064573623 -9.77363317e-23)
(-0.01052950559 0.05045435746 2.831898742e-22)
(-0.02582956494 0.06912508491 1.526821523e-22)
(-0.04402136793 0.0784925451 3.619171847e-24)
(-0.06310737084 0.08029473216 -7.319363635e-23)
(-0.08190402401 0.07588040133 9.04314514e-23)
(-0.09947760433 0.06621688458 -3.590098603e-24)
(-0.1150227007 0.05201693503 -1.729109727e-24)
(-0.127751878 0.03392357747 2.524070759e-24)
(-0.136847219 0.01270233362 7.382184206e-24)
(-0.1414710115 -0.01058781245 -6.500403731e-24)
(-0.1408247792 -0.03446022505 -9.787169258e-24)
(-0.1342745609 -0.05692769266 -3.261744798e-23)
(-0.1215449924 -0.07553313434 -3.660967572e-23)
(-0.1029672398 -0.08754257684 5.644904978e-25)
(-0.07976367959 -0.09039206952 0)
(-0.05426681203 -0.08244511465 0)
(-0.02987160254 -0.0639773525 -2.905944148e-24)
(-0.010662849 -0.03798793895 2.970390705e-24)
(-0.0007350934097 -0.01050089332 1.02787271e-22)
(-0.0004479165228 0.02687250061 0)
(-0.01134922926 0.06480754741 2.00198288e-22)
(-0.02801598815 0.08829613438 8.962047637e-23)
(-0.04799855872 0.1001234529 0)
(-0.06920599962 0.1027076155 1.56984977e-22)
(-0.09044370659 0.09781575204 0)
(-0.1107831383 0.08661100394 -1.428371108e-22)
(-0.1294093427 0.06983948596 6.515451388e-24)
(-0.1454771271 0.04808231367 0)
(-0.1580351431 0.02201755711 0)
(-0.1660133069 -0.007334428619 -1.374382161e-24)
(-0.168267118 -0.03838837705 -9.316519313e-25)
(-0.1637064344 -0.0688397307 1.491944921e-22)
(-0.1515208444 -0.09558272447 -4.704628893e-23)
(-0.1315134284 -0.1148298305 -2.560866707e-24)
(-0.1045595862 -0.1225703068 1.534619279e-24)
(-0.07309348399 -0.1155517667 -1.558826796e-24)
(-0.04135020642 -0.09283113349 0)
(-0.01525229962 -0.05740766383 3.203752135e-24)
(-0.001044308852 -0.01714714148 -1.012898674e-21)
(-0.0003744667423 0.03346303163 0)
(-0.01175005868 0.07998915563 -1.128248918e-22)
(-0.029207073 0.108639052 -6.191072614e-22)
(-0.05031743862 0.1232233524 -3.755269041e-22)
(-0.07296315768 0.1269096578 0)
(-0.09598958083 0.121925524 4.119422484e-22)
(-0.1185273238 0.1096348332 1.260909815e-22)
(-0.1398146149 0.09078243815 -5.581780075e-24)
(-0.1590221261 0.06581392213 5.554153263e-24)
(-0.1751460701 0.03520881235 0)
(-0.1869559675 -0.0001967353827 2.912105303e-23)
(-0.1930172339 -0.03889752191 4.695779764e-24)
(-0.1917809615 -0.07843885533 -1.076790475e-22)
(-0.1817874159 -0.1151865013 8.004038294e-23)
(-0.1620570189 -0.1442599063 -2.419709193e-22)
(-0.1327061796 -0.1598548225 0)
(-0.09577886633 -0.1563112521 0)
(-0.05601632119 -0.1302980797 0)
(-0.02147858749 -0.08381133368 0)
(-0.001500384241 -0.02665515778 5.572039963e-22)
(-0.0002873902293 0.04016076194 0)
(-0.01169359511 0.09543608005 -3.492980783e-22)
(-0.02924437948 0.1294073167 8.932725297e-22)
(-0.050609466 0.1469298666 3.617142517e-22)
(-0.07370081578 0.1519748183 0)
(-0.09745149721 0.1472757528 -3.862522337e-22)
(-0.1211069671 0.1344191607 -3.174409667e-23)
(-0.1440324606 0.114139309 3.333088071e-22)
(-0.1655143047 0.08670005547 1.769465779e-22)
(-0.1846248329 0.05229123625 -4.060131339e-23)
(-0.2001325615 0.01141717425 1.656821976e-23)
(-0.2104622244 -0.03471421928 -8.265185364e-24)
(-0.2137208328 -0.08376560533 3.371837793e-22)
(-0.2078215301 -0.1318755971 0)
(-0.1908238347 -0.1732755712 2.420878201e-22)
(-0.1616335568 -0.2002592952 5.774658447e-24)
(-0.1211662552 -0.2040121288 -5.860775686e-24)
(-0.07384988869 -0.1772119609 1.548408103e-22)
(-0.02971786398 -0.1188642102 -5.435338457e-24)
(-0.002179544633 -0.04005398009 0)
(-0.000211720222 0.04671638474 0)
(-0.01125001098 0.1105497761 0)
(-0.02815624434 0.1497354521 -5.022721581e-22)
(-0.04874479181 0.1701517081 -1.880986517e-23)
(-0.07100086355 0.1766256642 2.038367353e-23)
(-0.09399451053 0.1724526068 -2.014299985e-23)
(-0.1171434245 0.1594870638 -2.316873124e-23)
(-0.1400179445 0.1384804847 -3.029808109e-22)
(-0.1621328833 0.1095160605 6.698615797e-23)
(-0.1827958982 0.07245187093 4.51315426e-23)
(-0.2009835504 0.02734930094 -4.577695746e-23)
(-0.2152270209 -0.02508695539 0)
(-0.2235562151 -0.08298348326 -7.839580666e-23)
(-0.2234632124 -0.1427256962 0)
(-0.2120679346 -0.1981820461 -3.739542023e-22)
(-0.1867434454 -0.2400773247 5.244914977e-22)
(-0.1464438211 -0.2560772968 0)
(-0.09394566989 -0.2331209117 -1.493955419e-22)
(-0.0402200059 -0.1639613392 1.937511048e-22)
(-0.003201099715 -0.05861062193 -3.411490996e-22)
(-0.0002015414476 0.05297583707 0)
(-0.01067262085 0.1248172036 9.182830884e-22)
(-0.02628447039 0.1687424105 -2.440673743e-23)
(-0.04501108314 0.1916454621 9.193299846e-22)
(-0.06494598099 0.1992920554 -2.51207495e-23)
(-0.08536629209 0.1956103883 2.838833567e-23)
(-0.1059305725 0.1827886505 -2.812919724e-23)
(-0.1264924274 0.1616583286 -1.660912849e-23)
(-0.1468996945 0.1321762199 -5.260213322e-22)
(-0.1668458266 0.09389646809 -8.906602178e-24)
(-0.1857303141 0.04640577529 9.660167822e-24)
(-0.2024781803 -0.01023782637 3.313069903e-22)
(-0.215415472 -0.07499817516 -5.820722236e-22)
(-0.22202098 -0.1450311501 0)
(-0.2188032155 -0.2146760235 8.887286547e-22)
(-0.2016257538 -0.2740016007 -4.940849986e-22)
(-0.1668639173 -0.3075811529 -1.572211286e-23)
(-0.1140220058 -0.2953811514 0)
(-0.05288481724 -0.2195802281 -1.890145404e-22)
(-0.004749187671 -0.08377276798 3.360549444e-22)
(-0.0003641993434 0.05902316552 1.551004724e-23)
(-0.01049574367 0.1379881183 -8.764160385e-22)
(-0.02441390317 0.1856803662 -1.157055124e-21)
(-0.04026725572 0.2101384264 -8.62895112e-22)
(-0.05630731073 0.218234844 0)
(-0.07214858295 0.2146189862 3.513794662e-23)
(-0.0877922362 0.2018791646 -7.294845826e-23)
(-0.1034563015 0.1810005415 5.867869518e-23)
(-0.1193984119 0.1518997165 3.02135899e-22)
(-0.1357931811 0.1139150603 -1.12819326e-23)
(-0.1526082596 0.06621426224 0)
(-0.1694521652 0.008177223544 -3.603921105e-22)
(-0.1852760862 -0.06015985131 7.515652446e-22)
(-0.1980448755 -0.1372746715 8.831686369e-22)
(-0.2043546457 -0.218926156 -5.296609238e-22)
(-0.1990977747 -0.2959712557 5.162672126e-22)
(-0.1760605402 -0.3514072211 1.078221422e-23)
(-0.130089065 -0.3584150412 -1.095536277e-23)
(-0.06688803211 -0.2843276209 -8.215708286e-23)
(-0.00708331961 -0.1169964287 0)
(-0.000909578547 0.06540040553 -1.911481488e-23)
(-0.01167592301 0.1502816141 -1.326962147e-21)
(-0.02388883212 0.2000659177 1.09423375e-21)
(-0.03601342135 0.2244216536 6.734910106e-22)
(-0.04657310973 0.2316587824 6.014614274e-22)
(-0.0557704118 0.2272393335 6.643938796e-22)
(-0.06411248806 0.2141774606 -4.458667e-23)
(-0.07227565018 0.193649422 -3.461329672e-22)
(-0.08096976569 0.1656028266 2.152158245e-22)
(-0.09087196104 0.1292707404 0)
(-0.1025547839 0.08353083772 0)
(-0.116362254 0.0272001262 2.655392882e-22)
(-0.1321589928 -0.04062003736 8.194328505e-23)
(-0.1489252657 -0.1200128058 -2.821615786e-22)
(-0.1641284573 -0.2089300425 -5.411261217e-23)
(-0.1727877848 -0.3006992226 1.301951416e-22)
(-0.1670311458 -0.37933288 -3.400485825e-22)
(-0.1365292515 -0.4136451657 -1.594031761e-23)
(-0.08018250302 -0.3538325926 8.20448043e-23)
(-0.01050762286 -0.1594130435 -6.032198925e-22)
(-0.002260499254 0.07348882802 0)
(-0.0158035632 0.1626521564 2.145869403e-21)
(-0.02665043988 0.2117904431 0)
(-0.03422341781 0.2333946917 -1.351804224e-21)
(-0.03759401363 0.2377766475 6.184059498e-23)
(-0.03799688709 0.2312553218 -6.193077554e-22)
(-0.03668269822 0.2171898784 -4.756272844e-22)
(-0.03489040599 0.1968934365 8.301236543e-22)
(-0.03378842388 0.1703342354 -1.885694383e-22)
(-0.03449881 0.1367221135 0)
(-0.03811577249 0.09479674911 0)
(-0.0456499684 0.0430428835 2.410614785e-23)
(-0.05790808498 -0.02013779204 -6.007189382e-22)
(-0.07514602425 -0.09620648126 -4.309559792e-22)
(-0.09645178423 -0.1855555967 4.63785424e-22)
(-0.11834629 -0.2853567567 -6.488716825e-22)
(-0.1332715592 -0.383838632 9.119930592e-23)
(-0.1265351111 -0.4504358487 2.937528347e-23)
(-0.08899154507 -0.4198536152 5.660462566e-22)
(-0.01526917956 -0.2111719608 6.020831593e-22)
(-0.005180900077 0.08598045569 0)
(-0.02525551358 0.1766291054 1.465579611e-22)
(-0.03483409473 0.2205961332 -4.917133298e-23)
(-0.03640016245 0.2354859079 7.64291089e-22)
(-0.03018486227 0.2343406477 -7.005359172e-22)
(-0.0191658329 0.2241603641 4.74646897e-23)
(-0.005615193372 0.2083525666 -1.018607421e-22)
(0.008569561638 0.1881240988 -3.389881058e-22)
(0.02179881399 0.1633911252 2.062818531e-22)
(0.03262776731 0.1333242788 0)
(0.03958453976 0.09664087316 0)
(0.04117008939 0.05174057951 -2.902663385e-22)
(0.03578479808 -0.003255381161 0)
(0.02198181029 -0.07058359172 -5.512178627e-22)
(-0.0012648783 -0.1525735353 -1.492376084e-23)
(-0.0331047259 -0.2505949707 2.559729786e-23)
(-0.06909237978 -0.3599341379 2.203124309e-22)
(-0.09227828415 -0.4575424392 4.788205014e-24)
(-0.08718090494 -0.4698129265 -5.789432234e-22)
(-0.02103127207 -0.2698972199 0)
(-0.01111631563 0.1085974966 0)
(-0.04248902369 0.194715161 -8.848462781e-22)
(-0.04795530219 0.2258195376 -5.411029901e-22)
(-0.03919538106 0.2282135375 4.543806951e-22)
(-0.01877833282 0.2182327941 -1.709986671e-24)
(0.007664277008 0.2028220179 -4.561038442e-23)
(0.03667989214 0.1847619637 5.696667889e-22)
(0.06582994117 0.1647118139 -2.76688433e-23)
(0.0932712634 0.1423128164 -2.069777413e-22)
(0.1173891163 0.1166274981 3.142207554e-23)
(0.1365461266 0.0864114476 -3.425911327e-23)
(0.1489668879 0.05017670198 -3.690588551e-23)
(0.1525275432 0.00615917997 3.205628621e-22)
(0.1449366726 -0.04796125754 6.119596722e-22)
(0.1235159526 -0.1153052797 -5.101162117e-22)
(0.08633531246 -0.2004195559 -1.616049678e-22)
(0.03199087379 -0.3067806519 1.531316652e-22)
(-0.02362124522 -0.4239837072 7.293664536e-23)
(-0.06492413609 -0.4871612707 1.913293375e-21)
(-0.02509971778 -0.329154468 2.95499346e-21)
(-0.02004680434 0.1460727415 -4.390202074e-23)
(-0.06416406465 0.2112955844 4.41737479e-23)
(-0.0507023133 0.2177300419 1.000186822e-21)
(-0.01934098777 0.2014679886 -8.27054112e-24)
(0.02414462794 0.1809076063 0)
(0.07154119261 0.1606933237 4.363711341e-23)
(0.1190703075 0.1416495406 -2.273846303e-22)
(0.1644766969 0.1233181769 -9.027935414e-23)
(0.2062250783 0.1048117281 3.680726374e-23)
(0.2429642654 0.08507140327 -1.701651944e-23)
(0.2732207234 0.06296148224 3.429964628e-23)
(0.2952535799 0.03726294575 -6.592670304e-23)
(0.306697079 0.006535076605 -9.303894603e-23)
(0.3049738083 -0.03087769225 1.517041e-22)
(0.2863936062 -0.07786290275 0)
(0.2470567934 -0.139930032 1.505601622e-22)
(0.1810922114 -0.2266299728 2.560015037e-22)
(0.09604449331 -0.3443894918 0)
(-0.006697620585 -0.4552210187 -3.675637732e-21)
(-0.01922408278 -0.377753756 -2.892622868e-21)
(-0.02591951271 0.2276828814 -9.514200322e-22)
(-0.03998324541 0.2238216537 -1.388974742e-22)
(0.03656136814 0.1810585345 -2.335577608e-22)
(0.1090503003 0.1451059054 -1.193740021e-22)
(0.18171911 0.1172445444 -4.295816187e-23)
(0.2490090585 0.09627907118 9.783152982e-23)
(0.3100336506 0.08002510007 -1.408588367e-22)
(0.3646209101 0.06656815096 1.297172201e-22)
(0.4126252243 0.05449178847 -8.620102057e-23)
(0.4536250048 0.04270895066 1.132184361e-25)
(0.4867878487 0.03032298706 1.527739118e-23)
(0.5107451156 0.01652902237 7.997191739e-23)
(0.5236597284 0.0005365182617 -1.811120726e-22)
(0.5231797882 -0.01863372875 -1.617143128e-22)
(0.5052323323 -0.04286478652 -4.26293322e-23)
(0.4658715013 -0.07633230988 0)
(0.3952696448 -0.1286089377 -1.846482994e-22)
(0.291607101 -0.2208468095 8.148769095e-22)
(0.1197455082 -0.3525016901 1.631602509e-21)
(0.02670547199 -0.3775497976 2.172656373e-21)
(0.2142894475 0.1347447212 9.864984823e-22)
(0.2776311205 0.09870503609 0)
(0.4316592313 0.05810414845 -2.594316623e-22)
(0.5304749359 0.0384626492 -1.74166264e-22)
(0.6016965741 0.02623419057 0)
(0.6571198919 0.0183192342 -6.009073785e-23)
(0.7015213534 0.01313600817 6.377983183e-23)
(0.7376042409 0.009542126383 -1.800151894e-23)
(0.7669368314 0.006804463984 2.885967061e-23)
(0.7902106581 0.004464744537 2.315028275e-23)
(0.8074554916 0.002221320643 0)
(0.8182621279 -0.0001500741369 -2.87302783e-23)
(0.8216499661 -0.002723847471 0)
(0.8162394165 -0.005712668049 2.738140706e-23)
(0.7991333135 -0.009611382462 1.42168161e-23)
(0.7679986344 -0.01500255093 -5.799414094e-23)
(0.7106555759 -0.02502519964 -2.535664221e-22)
(0.6235183983 -0.04204285422 -6.918106192e-22)
(0.423009102 -0.09182968099 0)
(0.2705674689 -0.1524021842 -2.119484227e-21)
)


// ************************************************************************* //
