/*--------------------------------*- C++ -*----------------------------------*\
  =========                 |
  \\      /  F ield         | OpenFOAM: The Open Source CFD Toolbox
   \\    /   O peration     | Website:  https://openfoam.org
    \\  /    A nd           | Version:  13
     \\/     M anipulation  |
\*---------------------------------------------------------------------------*/
FoamFile
{
    format      ascii;
    class       vectorField;
    location    "42.67";
    object      U_all;
}
// * * * * * * * * * * * * * * * * * * * * * * * * * * * * * * * * * * * * * //


400
(
(1.100596433e-05 -3.783183133e-05 0)
(-0.0006660954099 0.0004130431265 -1.551297815e-23)
(-0.002185374416 0.0009203940715 0)
(-0.004047831433 0.001312780161 0)
(-0.005971866738 0.001535063897 6.845801395e-25)
(-0.007762783781 0.001569846762 4.151179751e-24)
(-0.009284548279 0.00142356516 -7.373857262e-24)
(-0.01043594479 0.001119727236 7.530235646e-24)
(-0.01113681526 0.0006960865876 -2.095452965e-25)
(-0.01132710916 0.0002030793147 -3.994708692e-24)
(-0.01097176904 -0.0003002346559 5.803663361e-24)
(-0.01007232575 -0.0007475188408 -5.929535989e-23)
(-0.008679880626 -0.001075564544 -6.552659815e-23)
(-0.006902855429 -0.001233044603 -7.784261705e-23)
(-0.004910740357 -0.001192637565 4.573587124e-24)
(-0.002927232454 -0.0009619194199 -4.137948891e-24)
(-0.001205297985 -0.0005912113027 -1.998763048e-22)
(-1.906681978e-05 -0.0001698830753 0)
(0.000518155077 0.0001720853476 1.50956068e-25)
(0.0002227518275 0.0003059785231 -2.552336988e-24)
(-0.0002633625033 0.0008289696363 1.382977425e-25)
(-0.002703304836 0.003383842515 1.561094914e-23)
(-0.006907277678 0.005604503111 1.555343401e-25)
(-0.0119523207 0.007008208422 -8.495291528e-25)
(-0.01713504328 0.007553774256 1.162129672e-24)
(-0.02197535157 0.007294196552 1.306954947e-23)
(-0.02611075904 0.00632189289 1.387975828e-24)
(-0.02926564882 0.004754195539 -7.282002817e-24)
(-0.03122673426 0.002737156633 1.015233047e-23)
(-0.03184201362 0.000452409812 4.510060491e-24)
(-0.03102761539 -0.001884143631 -6.318941604e-24)
(-0.02879316453 -0.004023031144 2.961475684e-24)
(-0.02527138134 -0.005708356877 3.895489068e-23)
(-0.02073194821 -0.006707410805 -1.954757436e-24)
(-0.01558962774 -0.006854140068 3.754459891e-24)
(-0.01038513579 -0.006097463991 -9.740932832e-23)
(-0.005730272713 -0.004546187075 9.637692264e-23)
(-0.002233366165 -0.002507420428 -3.961136067e-25)
(-0.000181774418 -0.0005023737102 4.061036641e-25)
(8.343581677e-05 0.0006099245978 0)
(-0.0004188227862 0.002935079412 -2.910421665e-25)
(-0.004647873381 0.008804014305 1.70209932e-23)
(-0.01137196024 0.01324042499 -8.284103867e-24)
(-0.01932729331 0.0157920444 -2.075382315e-25)
(-0.02747411979 0.01653000349 2.038846439e-25)
(-0.03511778893 0.01564441686 6.836235537e-27)
(-0.04171344621 0.01335997285 -1.220464726e-24)
(-0.04683571462 0.009919767232 -4.551489021e-25)
(-0.05014988863 0.005602431789 -1.063051324e-23)
(-0.05141232078 0.0007444221512 0)
(-0.0504779352 -0.004241777612 0)
(-0.04733706469 -0.008887185056 2.671034035e-23)
(-0.04215927949 -0.01268176941 2.813033544e-23)
(-0.03531437376 -0.01513605319 -1.646167347e-24)
(-0.02738996234 -0.01586189724 4.845876957e-23)
(-0.01917005921 -0.01467334282 9.419237131e-23)
(-0.01156090764 -0.01169360458 3.975664084e-23)
(-0.00546541159 -0.007450743934 4.14177536e-25)
(-0.001451098978 -0.002936044547 1.073806746e-25)
(-9.072688492e-05 0.0002258758863 0)
(-0.0005024633105 0.006045351326 -4.248904034e-23)
(-0.006402739459 0.01637075492 -1.692324896e-23)
(-0.01553502276 0.02355933415 8.21096133e-24)
(-0.02627912027 0.02744162631 0)
(-0.03728746947 0.0283210247 0)
(-0.04769037768 0.02658772938 0)
(-0.05679663206 0.02263120569 -4.468832297e-26)
(-0.06405383997 0.01683609218 -2.136494294e-24)
(-0.06901081351 0.009622181187 0)
(-0.07130827794 0.001491047979 1.635416882e-24)
(-0.07070853603 -0.006936504361 2.802735803e-25)
(-0.06713039626 -0.01493018764 -2.810583398e-25)
(-0.06069905854 -0.02166728075 0)
(-0.05180750718 -0.02631605762 4.133292072e-23)
(-0.04114991762 -0.02816070963 -4.681589295e-23)
(-0.02971970235 -0.02677372334 -2.76195397e-23)
(-0.01873716646 -0.02221530577 -3.96080915e-23)
(-0.009488027945 -0.01521922211 7.795887643e-25)
(-0.002976879776 -0.007298194973 9.790332459e-23)
(-0.0002318796606 -0.0008661684653 0)
(-0.0005316142733 0.01009501794 4.269565652e-23)
(-0.007983594438 0.02595219796 4.785128773e-25)
(-0.01939687456 0.03642882853 -4.675837997e-25)
(-0.03282382336 0.04185520592 0)
(-0.04664688963 0.04289485185 7.782968189e-25)
(-0.05985229813 0.04020074198 -7.675054505e-25)
(-0.07163291657 0.03434741971 3.672281653e-23)
(-0.08132751492 0.02585664327 1.848163087e-23)
(-0.08836601156 0.01527298386 6.238740282e-24)
(-0.0922546948 0.003246145708 -1.637322165e-24)
(-0.09260379707 -0.009407834126 0)
(-0.08917555521 -0.02167478124 4.370594098e-25)
(-0.0819597939 -0.03236745071 1.009007859e-23)
(-0.07126885644 -0.04021250113 -4.349324604e-23)
(-0.05782018984 -0.04402046324 1.932912407e-24)
(-0.04278583032 -0.04294829373 4.217308535e-23)
(-0.02775450304 -0.03683346942 -3.841825519e-25)
(-0.0145506226 -0.02652720973 0)
(-0.004859462174 -0.01408454483 5.436533024e-23)
(-0.0003641483788 -0.002846953265 -2.565071971e-22)
(-0.0005272217985 0.01499927697 9.841518827e-23)
(-0.009377926835 0.03739022574 -4.907779305e-25)
(-0.02288182939 0.05170223318 0)
(-0.0388304357 0.05894183272 0)
(-0.05538656731 0.060255746 -8.732063176e-23)
(-0.07142876663 0.05661901002 -8.499051376e-23)
(-0.08606654269 0.04880168805 -4.067535167e-23)
(-0.09855086226 0.03743980651 -1.504353133e-23)
(-0.1081945334 0.02315984105 -5.368791304e-24)
(-0.1143444742 0.006709679786 -8.174951821e-24)
(-0.1164046211 -0.01093292202 6.601078264e-24)
(-0.11389374 -0.02848945139 8.82663216e-24)
(-0.1065486985 -0.04437046327 -1.892314682e-23)
(-0.09446804186 -0.0567533377 4.607426115e-24)
(-0.07826857063 -0.06378298615 0)
(-0.05922895543 -0.06393495352 -1.572906876e-23)
(-0.03933981919 -0.0565381622 -2.427986812e-26)
(-0.0211418878 -0.04235809078 0)
(-0.007318702587 -0.02398229385 -1.520642917e-22)
(-0.0005216165519 -0.005925544622 6.05625951e-22)
(-0.0004990817385 0.02064574382 -9.774470672e-23)
(-0.01052950949 0.05045438159 2.83198183e-22)
(-0.02582957579 0.06912511925 1.526860907e-22)
(-0.04402138479 0.07849258201 3.619267951e-24)
(-0.06310739287 0.08029476609 -7.319367028e-23)
(-0.08190405119 0.07588042961 9.043505726e-23)
(-0.09947763693 0.0662169065 -3.590203162e-24)
(-0.1150227382 0.05201695023 -1.729169439e-24)
(-0.1277519189 0.033923585 2.52415945e-24)
(-0.1368472609 0.01270233228 7.382587425e-24)
(-0.1414710525 -0.01058782311 -6.50082803e-24)
(-0.140824818 -0.0344602441 -9.788048229e-24)
(-0.1342745968 -0.05692771785 -3.261732359e-23)
(-0.1215450245 -0.0755331628 -3.661456597e-23)
(-0.1029672668 -0.08754260569 5.645880732e-25)
(-0.0797637001 -0.09039209615 0)
(-0.05426682543 -0.08244513671 0)
(-0.02987160955 -0.063977368 -2.906057775e-24)
(-0.01066285149 -0.03798794687 2.970506852e-24)
(-0.0007350937408 -0.01050089458 1.027873881e-22)
(-0.0004479157627 0.02687251099 0)
(-0.01134923114 0.06480757411 2.001975727e-22)
(-0.02801599652 0.08829617236 8.962038764e-23)
(-0.04799857434 0.100123496 0)
(-0.06920602147 0.1027076574 1.569880956e-22)
(-0.09044373345 0.09781578801 0)
(-0.1107831693 0.08661103123 -1.428387732e-22)
(-0.1294093774 0.06983950366 6.515554646e-24)
(-0.1454771647 0.04808232173 0)
(-0.1580351825 0.02201755555 0)
(-0.1660133466 -0.007334439892 -1.374411351e-24)
(-0.1682671566 -0.03838839767 -9.316769523e-25)
(-0.1637064705 -0.06883975926 1.491979735e-22)
(-0.1515208771 -0.09558275838 -4.704633794e-23)
(-0.1315134566 -0.1148298664 -2.560970119e-24)
(-0.1045596087 -0.1225703413 1.534726638e-24)
(-0.07309349977 -0.1155517965 -1.558935848e-24)
(-0.04135021539 -0.09283115558 0)
(-0.015252303 -0.05740767633 3.203811546e-24)
(-0.001044309169 -0.01714714463 -1.012914036e-21)
(-0.0003744663984 0.03346304625 0)
(-0.01175006029 0.07998918747 -1.128288599e-22)
(-0.02920707846 0.108639094 -6.19114903e-22)
(-0.05031744999 0.1232233991 -3.755307143e-22)
(-0.07296317516 0.1269097043 0)
(-0.0959896035 0.1219255654 4.119457369e-22)
(-0.1185273503 0.1096348657 1.260924416e-22)
(-0.1398146441 0.09078245948 -5.581834438e-24)
(-0.159022157 0.06581393172 5.554207357e-24)
(-0.1751461021 0.03520881065 0)
(-0.186956 -0.0001967475964 2.912131405e-23)
(-0.1930172662 -0.03889754388 4.695841416e-24)
(-0.1917809927 -0.07843888595 -1.076809136e-22)
(-0.1817874449 -0.1151865386 8.004212537e-23)
(-0.1620570448 -0.1442599474 -2.419747285e-22)
(-0.1327062012 -0.1598548637 0)
(-0.09577888249 -0.1563112892 0)
(-0.05601633114 -0.1302981087 0)
(-0.02147859164 -0.08381135125 0)
(-0.001500384688 -0.02665516295 5.572116697e-22)
(-0.00028739033 0.04016077822 0)
(-0.01169359671 0.09543611643 -3.49301438e-22)
(-0.02924438266 0.1294073633 8.932798111e-22)
(-0.05060947229 0.1469299169 3.617179487e-22)
(-0.07370082619 0.1519748674 0)
(-0.09745151171 0.1472757967 -3.862555171e-22)
(-0.1211069849 0.1344191959 -3.174430526e-23)
(-0.1440324803 0.1141393328 3.333105257e-22)
(-0.1655143253 0.08670006677 1.769474836e-22)
(-0.1846248535 0.05229123511 -4.060152313e-23)
(-0.200132582 0.01141716174 1.656821315e-23)
(-0.2104622449 -0.03471424185 -8.265251251e-24)
(-0.2137208533 -0.08376563661 3.371859367e-22)
(-0.2078215503 -0.1318756355 0)
(-0.190823854 -0.1732756145 2.420916312e-22)
(-0.1616335742 -0.2002593402 5.774780141e-24)
(-0.1211662694 -0.2040121715 -5.860899195e-24)
(-0.07384989825 -0.177211996 1.548448852e-22)
(-0.02971786842 -0.1188642329 -5.435462588e-24)
(-0.002179545192 -0.04005398742 0)
(-0.0002117200748 0.04671639995 0)
(-0.01125001116 0.1105498135 0)
(-0.02815624475 0.1497355013 -5.022756457e-22)
(-0.04874479276 0.170151761 -1.880997906e-23)
(-0.07100086583 0.176625715 2.038378644e-23)
(-0.09399451456 0.1724526515 -2.014311142e-23)
(-0.1171434301 0.1594870993 -2.31688379e-23)
(-0.1400179511 0.138480509 -3.029823763e-22)
(-0.1621328899 0.1095160722 6.698615189e-23)
(-0.1827959042 0.07245187022 4.513178168e-23)
(-0.2009835557 0.0273492888 -4.577721248e-23)
(-0.215227026 -0.02508697745 0)
(-0.2235562208 -0.08298351361 -7.839688807e-23)
(-0.2234632193 -0.1427257333 0)
(-0.2120679431 -0.1981820885 -3.739563475e-22)
(-0.186743455 -0.2400773701 5.244956319e-22)
(-0.1464438305 -0.2560773418 0)
(-0.09394567741 -0.233120951 -1.493994921e-22)
(-0.04022000999 -0.1639613663 1.937551556e-22)
(-0.003201100286 -0.05861063149 -3.411531066e-22)
(-0.0002015407275 0.05297585072 0)
(-0.01067261857 0.1248172391 9.182871686e-22)
(-0.02628446687 0.1687424588 -2.4406861e-23)
(-0.04501107807 0.1916455147 9.193341324e-22)
(-0.0649459747 0.199292106 -2.512086895e-23)
(-0.08536628498 0.1956104322 2.838844682e-23)
(-0.1059305647 0.1827886847 -2.812930738e-23)
(-0.126492419 0.1616583512 -1.660918287e-23)
(-0.1468996853 0.1321762304 -5.260230009e-22)
(-0.1668458163 0.09389646681 -8.90662988e-24)
(-0.1857303027 0.04640576344 9.66019723e-24)
(-0.2024781685 -0.01023784714 3.313078244e-22)
(-0.2154154611 -0.07499820325 -5.820741195e-22)
(-0.2220209713 -0.145031184 0)
(-0.2188032103 -0.2146760622 8.887326205e-22)
(-0.2016257525 -0.2740016428 -4.940888824e-22)
(-0.1668639194 -0.3075811963 -1.572223795e-23)
(-0.1140220095 -0.2953811918 0)
(-0.05288482021 -0.2195802582 -1.890185236e-22)
(-0.004749188158 -0.08377277962 3.360588821e-22)
(-0.0003641983351 0.05902317795 1.55101053e-23)
(-0.01049573925 0.1379881503 -8.764199198e-22)
(-0.02441389532 0.1856804103 -1.15705941e-21)
(-0.04026724413 0.2101384753 -8.628990101e-22)
(-0.05630729574 0.2182348916 0)
(-0.07214856503 0.2146190276 3.51380628e-23)
(-0.0877922157 0.2018791961 -7.294868462e-23)
(-0.1034562788 0.1810005614 5.867886035e-23)
(-0.1193983873 0.1518997245 3.021367459e-22)
(-0.135793155 0.1139150573 -1.128195989e-23)
(-0.1526082325 0.06621424996 0)
(-0.169452138 0.00817720384 -3.603930355e-22)
(-0.1852760602 -0.06015987669 7.515669629e-22)
(-0.1980448521 -0.137274701 8.831705634e-22)
(-0.2043546268 -0.2189261889 -5.296628704e-22)
(-0.1990977617 -0.2959712915 5.16269093e-22)
(-0.1760605334 -0.3514072592 1.078233451e-23)
(-0.1300890634 -0.3584150787 -1.0955485e-23)
(-0.06688803313 -0.2843276513 -8.215318931e-23)
(-0.007083319932 -0.1169964418 0)
(-0.000909577629 0.06540041621 -1.911487116e-23)
(-0.01167591739 0.1502816416 -1.326965798e-21)
(-0.02388882077 0.200065956 1.09423778e-21)
(-0.03601340386 0.2244216964 6.73493151e-22)
(-0.04657308671 0.2316588243 6.014633351e-22)
(-0.05577038423 0.22723937 6.643958903e-22)
(-0.06411245671 0.2141774881 -4.458678694e-23)
(-0.07227561567 0.1936494385 -3.461337954e-22)
(-0.08096972878 0.1656028319 2.152162852e-22)
(-0.09087192263 0.1292707355 0)
(-0.1025547448 0.08353082469 0)
(-0.1163622154 0.02720010722 2.655397229e-22)
(-0.1321589557 -0.04062006012 8.194326166e-23)
(-0.1489252317 -0.1200128307 -2.821624075e-22)
(-0.1641284281 -0.2089300689 -5.411272417e-23)
(-0.1727877621 -0.3006992505 1.301951829e-22)
(-0.1670311307 -0.37933291 -3.400505378e-22)
(-0.1365292441 -0.4136451968 -1.593844774e-23)
(-0.08018250147 -0.3538326202 8.204091606e-23)
(-0.01050762293 -0.1594130568 -6.032161211e-22)
(-0.002260498543 0.07348883577 0)
(-0.01580355708 0.1626521778 2.145874942e-21)
(-0.02665042645 0.2117904741 0)
(-0.0342233963 0.233394727 -1.351808132e-21)
(-0.03759398463 0.2377766822 6.184048645e-23)
(-0.03799685208 0.231255352 -6.19309641e-22)
(-0.03668265881 0.2171899009 -4.756285327e-22)
(-0.03489036336 0.1968934492 8.301256594e-22)
(-0.03378837913 0.1703342383 -1.885698393e-22)
(-0.03449876441 0.1367221075 0)
(-0.03811572718 0.09479673617 0)
(-0.04564992444 0.04304286585 2.410615874e-23)
(-0.05790804331 -0.02013781218 -6.007199123e-22)
(-0.07514598592 -0.09620650189 -4.309567444e-22)
(-0.09645175046 -0.1855556169 4.637862888e-22)
(-0.1183462622 -0.2853567768 -6.488736008e-22)
(-0.1332715387 -0.383838653 9.119947749e-23)
(-0.1265350991 -0.450435871 2.937329986e-23)
(-0.08899154095 -0.4198536372 5.660445216e-22)
(-0.01526917931 -0.2111719729 6.020793951e-22)
(-0.005180899605 0.08598045984 0)
(-0.02525550756 0.1766291193 1.465579521e-22)
(-0.03483408081 0.2205961557 -4.917144946e-23)
(-0.03640013966 0.235485935 7.642931019e-22)
(-0.03018483084 0.2343406749 -7.005378454e-22)
(-0.01916579426 0.2241603876 4.746481287e-23)
(-0.005615150111 0.2083525838 -1.018609677e-22)
(0.008569607805 0.1881241083 -3.389889144e-22)
(0.02179886165 0.1633911268 2.062822983e-22)
(0.03262781457 0.1333242732 0)
(0.03958458545 0.09664086188 0)
(0.04117013248 0.05174056452 -2.90266785e-22)
(0.03578483813 -0.003255397705 0)
(0.02198184672 -0.07058360824 -5.512187271e-22)
(-0.001264846156 -0.1525735505 -1.492377157e-23)
(-0.03310469889 -0.2505949844 2.55974059e-23)
(-0.06909235826 -0.3599341513 2.203142101e-22)
(-0.09227827009 -0.4575424523 4.788093581e-24)
(-0.08718089924 -0.4698129411 -5.789413737e-22)
(-0.02103127148 -0.2698972294 0)
(-0.01111631567 0.1085974976 0)
(-0.04248901895 0.1947151672 -8.848479858e-22)
(-0.04795528989 0.2258195509 -5.411040065e-22)
(-0.03919536051 0.2282135558 4.543816932e-22)
(-0.01877830393 0.2182328137 -1.709984751e-24)
(0.007664313193 0.2028220354 -4.56104958e-23)
(0.03667993344 0.1847619766 5.696682295e-22)
(0.06582998535 0.1647118213 -2.766890656e-23)
(0.0932713084 0.1423128178 -2.069781875e-22)
(0.1173891602 0.116627494 3.142213724e-23)
(0.1365461681 0.0864114392 -3.425917346e-23)
(0.1489669262 0.05017669062 -3.690594261e-23)
(0.1525275776 0.006159167219 3.205633655e-22)
(0.1449367026 -0.04796127001 6.119606442e-22)
(0.1235159786 -0.1153052906 -5.101171745e-22)
(0.0863353339 -0.2004195647 -1.616058135e-22)
(0.03199089249 -0.3067806589 1.531308176e-22)
(-0.02362123186 -0.4239837143 7.293653523e-23)
(-0.06492413065 -0.4871612786 1.913291772e-21)
(-0.02509971704 -0.3291544742 2.954991643e-21)
(-0.02004680522 0.1460727406 -4.390207855e-23)
(-0.06416406297 0.2112955853 4.417380606e-23)
(-0.05070230573 0.2177300476 1.000188616e-21)
(-0.0193409738 0.2014679985 -8.27056637e-24)
(0.02414464879 0.1809076184 0)
(0.07154121991 0.1606933354 4.363722438e-23)
(0.1190703398 0.1416495499 -2.273852035e-22)
(0.1644767324 0.1233181826 -9.02795771e-23)
(0.2062251151 0.1048117298 3.680734827e-23)
(0.2429643015 0.08507140122 -1.701655116e-23)
(0.2732207573 0.06296147713 3.429970654e-23)
(0.2952536104 0.03726293856 -6.592681637e-23)
(0.3066971056 0.006535068446 -9.303906198e-23)
(0.304973831 -0.03087770029 1.517044221e-22)
(0.2863936247 -0.07786290959 0)
(0.2470568083 -0.1399300369 1.505611131e-22)
(0.1810922234 -0.2266299752 2.560013983e-22)
(0.09604450229 -0.3443894947 0)
(-0.00669761598 -0.4552210218 -3.675635089e-21)
(-0.01922408203 -0.3777537588 -2.89262111e-21)
(-0.02591951401 0.2276828803 -9.514204996e-22)
(-0.03998324709 0.2238216532 -1.388976519e-22)
(0.03656136894 0.1810585363 -2.335581848e-22)
(0.1090503048 0.1451059094 -1.193742235e-22)
(0.1817191196 0.1172445499 -4.295826521e-23)
(0.2490090733 0.09627907678 9.783183042e-23)
(0.3100336701 0.08002510467 -1.40859243e-22)
(0.364620933 0.06656815384 1.297175479e-22)
(0.4126252492 0.05449178931 -8.62012156e-23)
(0.4536250298 0.04270894957 1.132190519e-25)
(0.4867878724 0.0303229844 1.527741912e-23)
(0.5107451366 0.01652901869 7.997205773e-23)
(0.5236597459 0.0005365143849 -1.811124028e-22)
(0.5231798016 -0.01863373255 -1.617146358e-22)
(0.5052323422 -0.04286478966 -4.262954483e-23)
(0.4658715084 -0.07633231195 0)
(0.3952696499 -0.1286089385 -1.846477717e-22)
(0.2916071048 -0.2208468098 8.148763731e-22)
(0.1197455106 -0.3525016903 1.631601636e-21)
(0.02670547259 -0.3775497979 2.172655939e-21)
(0.2142894466 0.1347447209 9.864989982e-22)
(0.277631118 0.09870503612 0)
(0.4316592285 0.05810414877 -2.594321132e-22)
(0.5304749343 0.03846264986 -1.741666817e-22)
(0.6016965751 0.02623419134 0)
(0.657119896 0.01831923487 -6.009093152e-23)
(0.7015213604 0.01313600856 6.378002687e-23)
(0.7376042502 0.009542126421 -1.800156775e-23)
(0.7669368418 0.006804463653 2.885974568e-23)
(0.7902106687 0.004464743902 2.31503344e-23)
(0.8074555013 0.002221319811 0)
(0.8182621358 -0.0001500750532 -2.873033214e-23)
(0.8216499718 -0.002723848377 0)
(0.8162394199 -0.005712668727 2.738151143e-23)
(0.799133315 -0.009611382886 1.421691944e-23)
(0.7679986347 -0.0150025511 -5.799403744e-23)
(0.7106555756 -0.02502519956 -2.535661113e-22)
(0.6235183981 -0.04204285409 -6.918101996e-22)
(0.4230091021 -0.09182968082 0)
(0.2705674689 -0.1524021841 -2.119483803e-21)
)


// ************************************************************************* //
