/*--------------------------------*- C++ -*----------------------------------*\
  =========                 |
  \\      /  F ield         | OpenFOAM: The Open Source CFD Toolbox
   \\    /   O peration     | Website:  https://openfoam.org
    \\  /    A nd           | Version:  13
     \\/     M anipulation  |
\*---------------------------------------------------------------------------*/
FoamFile
{
    format      ascii;
    class       volVectorField;
    location    "4";
    object      U;
}
// * * * * * * * * * * * * * * * * * * * * * * * * * * * * * * * * * * * * * //

dimensions      [0 1 -1 0 0 0 0];

internalField   nonuniform List<vector> 
100
(
(-0.000867859 0.000846707 0)
(-0.00588467 0.00194767 0)
(-0.0133445 0.00229305 0)
(-0.0204682 0.00202605 0)
(-0.0252968 0.00125969 0)
(-0.0265136 7.1529e-05 0)
(-0.023354 -0.00132432 0)
(-0.0161742 -0.00240302 0)
(-0.00733186 -0.00238854 0)
(-0.00112503 -0.000978113 0)
(-0.00234388 0.00612275 0)
(-0.0144656 0.0126135 0)
(-0.0309233 0.0142021 0)
(-0.0458701 0.0116606 0)
(-0.0557384 0.00625986 0)
(-0.058125 -0.00118148 0)
(-0.0516273 -0.00932631 0)
(-0.0367826 -0.0153808 0)
(-0.01764 -0.015133 0)
(-0.00289228 -0.00698252 0)
(-0.00359606 0.0159218 0)
(-0.0216795 0.0305668 0)
(-0.0448789 0.0330211 0)
(-0.0654005 0.026496 0)
(-0.0791066 0.0138906 0)
(-0.0831609 -0.00306122 0)
(-0.0755209 -0.0216677 0)
(-0.0559611 -0.0362235 0)
(-0.0285876 -0.0372446 0)
(-0.00483763 -0.0187203 0)
(-0.00483749 0.0295845 0)
(-0.0284171 0.0543654 0)
(-0.0576794 0.0573657 0)
(-0.0834442 0.045903 0)
(-0.101524 0.0248102 0)
(-0.108834 -0.00361329 0)
(-0.102305 -0.0357917 0)
(-0.0798393 -0.0632724 0)
(-0.0441853 -0.0691764 0)
(-0.00788638 -0.0376744 0)
(-0.00632492 0.0473455 0)
(-0.0359002 0.0838722 0)
(-0.0710363 0.086994 0)
(-0.101654 0.0698951 0)
(-0.124236 0.039659 0)
(-0.135904 -0.00148518 0)
(-0.132727 -0.0502963 0)
(-0.109996 -0.0965968 0)
(-0.0672462 -0.114386 0)
(-0.0126901 -0.0685647 0)
(-0.00818741 0.070028 0)
(-0.0442322 0.118787 0)
(-0.0836451 0.120646 0)
(-0.116148 0.096851 0)
(-0.140394 0.0573322 0)
(-0.155173 0.00369291 0)
(-0.15684 -0.0634423 0)
(-0.138177 -0.13441 0)
(-0.0941515 -0.175335 0)
(-0.0185883 -0.118799 0)
(-0.0106575 0.0991181 0)
(-0.0524288 0.157329 0)
(-0.0902714 0.153625 0)
(-0.115344 0.121125 0)
(-0.132203 0.0734264 0)
(-0.144285 0.0108553 0)
(-0.150254 -0.0710482 0)
(-0.141296 -0.167858 0)
(-0.108156 -0.245276 0)
(-0.0212915 -0.194186 0)
(-0.014635 0.13847 0)
(-0.0587827 0.193522 0)
(-0.0771043 0.174625 0)
(-0.0727173 0.131705 0)
(-0.0653622 0.0815009 0)
(-0.0639947 0.0202979 0)
(-0.0713043 -0.0623363 0)
(-0.0790967 -0.174231 0)
(-0.076425 -0.294834 0)
(-0.00820613 -0.281699 0)
(-0.0391935 0.199942 0)
(-0.0455769 0.21474 0)
(0.0161266 0.15934 0)
(0.0800471 0.114418 0)
(0.126515 0.0752732 0)
(0.14974 0.0333377 0)
(0.143292 -0.0247283 0)
(0.109565 -0.122959 0)
(0.0503004 -0.265133 0)
(0.0586263 -0.299387 0)
(0.224484 0.111417 0)
(0.289887 0.107686 0)
(0.409605 0.0738401 0)
(0.502965 0.0520623 0)
(0.561877 0.0371164 0)
(0.594151 0.0249402 0)
(0.593552 0.0113407 0)
(0.556109 -0.00603632 0)
(0.440489 -0.0497207 0)
(0.32399 -0.104427 0)
)
;

boundaryField
{
    movingWall
    {
        type            fixedValue;
        value           uniform (1 0 0);
    }
    fixedWalls
    {
        type            fixedValue;
        value           uniform (0 0 0);
    }
    frontAndBack
    {
        type            empty;
    }
}


// ************************************************************************* //
