/*--------------------------------*- C++ -*----------------------------------*\
  =========                 |
  \\      /  F ield         | OpenFOAM: The Open Source CFD Toolbox
   \\    /   O peration     | Website:  https://openfoam.org
    \\  /    A nd           | Version:  13
     \\/     M anipulation  |
\*---------------------------------------------------------------------------*/
FoamFile
{
    format      ascii;
    class       scalarField;
    location    "2.19";
    object      p_all;
}
// * * * * * * * * * * * * * * * * * * * * * * * * * * * * * * * * * * * * * //


400
(
2.040503903e-08
-0.0002768701256
-0.0003699988896
-0.0002664010393
8.486834488e-06
0.0004255100567
0.0009550753062
0.001571047004
0.002250499474
0.002971859201
0.003712002019
0.004446450373
0.005144208827
0.005769924882
0.006283640241
0.006644601999
0.006817475781
0.006784552144
0.006572394113
0.006199292279
0.0003000445464
5.27592833e-06
-0.0001098947321
-2.60027943e-05
0.0002170081699
0.0005956118088
0.001085047609
0.001662181606
0.002304907761
0.002990717498
0.003695349428
0.004390537959
0.005044755025
0.005622310209
0.006085413898
0.006397499729
0.006529947053
0.006472995458
0.006236800949
0.005838176321
0.0003948024686
8.196768165e-05
-5.062093499e-05
2.879443336e-05
0.000259508752
0.0006204591967
0.001090968574
0.001651020258
0.002280240702
0.002956441134
0.003654229323
0.004344022558
0.004991398233
0.00555811126
0.006004414431
0.006293660791
0.006399282077
0.006313078376
0.006027304241
0.005567536792
0.0002284148523
-0.0001048117591
-0.00025223665
-0.0001688998611
6.677230054e-05
0.0004330493682
0.0009109794213
0.001483276679
0.002131884054
0.002835707484
0.003568598689
0.004298793607
0.004987246718
0.005589857365
0.006060048129
0.006354608648
0.006442043157
0.006311828576
0.005943894818
0.005386380161
-0.0002498396396
-0.0005936250326
-0.0007433979249
-0.0006437205643
-0.0003868932474
4.431052566e-06
0.0005128883991
0.00112432245
0.001823746023
0.002591923565
0.003402157481
0.004220011772
0.004999500547
0.005687001396
0.006223831942
0.006554251556
0.0066366733
0.006456376004
0.005985090519
0.005301490443
-0.001085232082
-0.001433109268
-0.001578665848
-0.001451965279
-0.00115992445
-0.0007261899266
-0.0001661540303
0.0005100623056
0.001291884612
0.002163298373
0.003097314675
0.004057822217
0.004988898392
0.005823581361
0.006484382617
0.006894719248
0.00699498976
0.006761621639
0.006155556692
0.00529358842
-0.002322808856
-0.00267812404
-0.002818775727
-0.00265882922
-0.002322858555
-0.00183574125
-0.001210177006
-0.0004506651307
0.0004388537847
0.001447678979
0.002548437096
0.003717024755
0.004874819824
0.005940001257
0.006808482119
0.007370339115
0.0075335723
0.007253660974
0.006467304264
0.005341646867
-0.004018497943
-0.004392548298
-0.004533781459
-0.004341203543
-0.003961757658
-0.0034220963
-0.0027311741
-0.001885384838
-0.0008784321207
0.0002906044395
0.00161243737
0.003034252424
0.004503342953
0.005909441679
0.007111645727
0.007947804827
0.008267056797
0.007976501498
0.006955551145
0.005442063151
-0.006242868926
-0.006652196985
-0.006805199333
-0.006588503119
-0.006178577154
-0.005605166763
-0.004872590337
-0.003966220447
-0.002864435962
-0.0015486825
-1.250574475e-05
0.001718523894
0.003587430691
0.005474052581
0.007197615043
0.008519470697
0.009184450606
0.008994397322
0.007699418139
0.005636585043
-0.009083915738
-0.009546838887
-0.009726256781
-0.009500211329
-0.009086265902
-0.008520140604
-0.007801560395
-0.006902468307
-0.005780748097
-0.004390598483
-0.0026927856
-0.0006743767621
0.001643925703
0.00415708098
0.006658702295
0.008812790443
0.01019039763
0.01037894768
0.008849960955
0.006064155396
-0.01265243011
-0.01318280334
-0.01340077379
-0.01317927007
-0.01279647392
-0.0122997018
-0.01168646488
-0.01091545624
-0.009921770952
-0.008624971031
-0.006935236191
-0.004766975246
-0.002058366079
0.001171121221
0.004748142996
0.008250697425
0.01099368679
0.01216407262
0.01066377328
0.007055862226
-0.01709542696
-0.01768890295
-0.01794117922
-0.01771939617
-0.01739537242
-0.01703700901
-0.01664513226
-0.01616983681
-0.0155274423
-0.01460275421
-0.01324287628
-0.01125079765
-0.008414550514
-0.004549245358
0.0003412306552
0.005846199571
0.01098218782
0.01427621635
0.01354529804
0.009306526991
-0.02262830952
-0.0232296605
-0.02346562911
-0.02318368538
-0.02290402591
-0.02272576955
-0.02266006462
-0.0226570737
-0.02262615664
-0.02242827286
-0.02184914533
-0.02056160484
-0.01810491534
-0.0139676157
-0.007747958007
0.0003925876467
0.009278945059
0.01654452804
0.01813652704
0.01417689521
-0.02961005112
-0.03003559554
-0.03009804043
-0.02957574879
-0.02922528643
-0.02918236668
-0.02947040792
-0.0300464074
-0.03082723696
-0.03166911079
-0.0323115464
-0.03229032612
-0.03084094989
-0.02704845664
-0.01981207934
-0.008678213399
0.005348760095
0.01904931455
0.02558988053
0.02416907063
-0.03870416975
-0.03844117994
-0.03794227335
-0.03677470047
-0.03606143396
-0.0359550634
-0.03647391442
-0.03757428039
-0.03918415829
-0.04116642247
-0.04322871537
-0.04479053685
-0.04484857754
-0.04182189522
-0.03397159832
-0.01983347706
0.0003378554651
0.02311006974
0.03830255175
0.0435881199
-0.05130842095
-0.04903353568
-0.0471155724
-0.04451229223
-0.04287684854
-0.04229741425
-0.04273069132
-0.04409365594
-0.04629847868
-0.04919393932
-0.05244235652
-0.055337232
-0.05661236604
-0.0542537894
-0.04573072553
-0.02850500865
-0.001589919851
0.03270572731
0.06106981976
0.07945334158
-0.07015592601
-0.06238757919
-0.05729555633
-0.05195467892
-0.04860051337
-0.04701470196
-0.04696442741
-0.04824241451
-0.05067523981
-0.05403335979
-0.05787083446
-0.06131006934
-0.06282123066
-0.06000042742
-0.04969937436
-0.02841805959
0.006207225309
0.0546517323
0.1012316164
0.1413206295
-0.1036691946
-0.08040397818
-0.06866710558
-0.05833223392
-0.05208584472
-0.04886099631
-0.04796496543
-0.04890050143
-0.05127759215
-0.05467394921
-0.0584425619
-0.0614607819
-0.06191542497
-0.05697419213
-0.04300028427
-0.01556100298
0.02904078623
0.09433356493
0.1649002205
0.2420634039
-0.1641742089
-0.09660734714
-0.07485720567
-0.05720968539
-0.04809048478
-0.04398261613
-0.04306805586
-0.04432891151
-0.04708298736
-0.05069237778
-0.05430999264
-0.0565963168
-0.05548668615
-0.04758946977
-0.02902674623
0.005929054422
0.06292496078
0.1497054242
0.2582389683
0.420294814
-0.3938695003
-0.135038878
-0.0751393908
-0.05022029428
-0.03801480155
-0.03368961707
-0.03370309361
-0.03605373509
-0.0397188757
-0.04390971383
-0.04766488079
-0.04954916538
-0.04743887899
-0.03821117624
-0.01662031248
0.02481285031
0.09551509322
0.2179547555
0.4029858125
0.7633980062
)


// ************************************************************************* //
