/*--------------------------------*- C++ -*----------------------------------*\
  =========                 |
  \\      /  F ield         | OpenFOAM: The Open Source CFD Toolbox
   \\    /   O peration     | Website:  https://openfoam.org
    \\  /    A nd           | Version:  13
     \\/     M anipulation  |
\*---------------------------------------------------------------------------*/
FoamFile
{
    format      ascii;
    class       volScalarField;
    location    "12";
    object      p;
}
// * * * * * * * * * * * * * * * * * * * * * * * * * * * * * * * * * * * * * //

dimensions      [0 2 -2 0 0 0 0];

internalField   nonuniform List<scalar> 
400
(
4.241057752e-07
-0.0005367869432
-0.0008699053916
-0.0009894193406
-0.0009040594622
-0.0006459913134
-0.0002524640886
0.0002408538067
0.000797810039
0.001378403054
0.001937493106
0.002422920361
0.002779830825
0.002955507005
0.002908435698
0.002620129311
0.002109796348
0.001433796119
0.0007842619983
0.0001947243447
0.0005784191985
7.664912136e-06
-0.000347054477
-0.0004813191138
-0.0004432058379
-0.000259207361
4.136954418e-05
0.0004292991825
0.0008733047675
0.001336455132
0.001779459665
0.002151562994
0.00240283505
0.002486249482
0.002367886618
0.002038422972
0.001523489917
0.0008868551953
0.0002982222268
-0.0003589371654
0.000933838486
0.0003011018572
-9.052660257e-05
-0.0002285488559
-0.0002140404927
-7.695933941e-05
0.0001585317322
0.0004709258926
0.0008364439866
0.001224029103
0.001599173777
0.001911204217
0.002109845601
0.002146670618
0.001986547162
0.001619163664
0.001067510845
0.0003869699865
-0.0003025588756
-0.001131225854
0.0009522128989
0.0002468783678
-0.0001928228391
-0.0003361846692
-0.0003357489559
-0.000228171404
-3.446825372e-05
0.0002322082571
0.0005577794584
0.0009211258969
0.001283574178
0.001600409651
0.001812061957
0.001858633256
0.00169150432
0.001287046878
0.0006563512853
-0.0001547804256
-0.001058970694
-0.00219647593
0.0004590964465
-0.0002933217027
-0.0007611349045
-0.000903017194
-0.0009124625906
-0.0008306809621
-0.000673396194
-0.0004420995656
-0.0001374350066
0.0002305745237
0.0006317935727
0.001018121463
0.001319243717
0.001455181762
0.00135023488
0.00095148696
0.0002446469326
-0.0007388199062
-0.001935172551
-0.003447251419
-0.0006943600591
-0.001462898075
-0.001940776443
-0.002080744403
-0.002109243272
-0.002068695598
-0.001965490223
-0.00178411498
-0.001504897338
-0.001118614346
-0.0006411353357
-0.0001167732007
0.0003727756071
0.00071908092
0.0008017037626
0.000513734588
-0.0002097398897
-0.001366932801
-0.002921891053
-0.004909102186
-0.002643691929
-0.003395209703
-0.003876043735
-0.004028461834
-0.004107738306
-0.004154295529
-0.004160395496
-0.004086513439
-0.003882592165
-0.003506779595
-0.002945699905
-0.002225018534
-0.001429882117
-0.0007007611201
-0.0002234605881
-0.0001963361283
-0.000780374804
-0.002041543986
-0.003997045847
-0.006569819661
-0.005497900618
-0.006205699401
-0.006693139333
-0.006891500166
-0.00708173904
-0.007300231501
-0.007521077227
-0.007673302268
-0.007663892769
-0.007399435041
-0.006812248336
-0.00587859001
-0.004666059985
-0.00333681078
-0.002158309539
-0.001469631537
-0.001602912856
-0.002770079893
-0.005108638771
-0.008378480005
-0.009328144835
-0.009971177767
-0.0104773917
-0.01077079606
-0.01115698774
-0.01166925643
-0.01226230624
-0.01282817263
-0.01321825923
-0.01326424397
-0.01280479211
-0.01173941923
-0.01005492637
-0.00790295196
-0.005628771187
-0.003760713116
-0.002908572163
-0.00356831826
-0.006142621454
-0.01018541019
-0.01415280881
-0.01471286689
-0.0152496154
-0.01568672945
-0.01635913629
-0.01730318168
-0.01845792905
-0.01967756692
-0.02074898122
-0.02140863753
-0.02137063474
-0.02038090428
-0.01829340289
-0.01516998461
-0.01138433939
-0.007669758127
-0.005030018121
-0.004453206721
-0.006875818637
-0.01165697157
-0.01993155978
-0.02038763138
-0.02094872553
-0.02154632032
-0.0225612831
-0.02404639911
-0.02593495361
-0.02804866885
-0.03010853397
-0.03174316411
-0.03251096081
-0.03195272266
-0.02971117576
-0.02564232965
-0.02003755372
-0.01377293903
-0.008314742246
-0.005390192454
-0.006899210307
-0.01213967996
-0.02657948684
-0.02689615156
-0.02743007638
-0.02812616616
-0.0294499566
-0.03149298888
-0.03419788841
-0.03736390474
-0.04065171972
-0.04358160896
-0.04554355023
-0.0458371405
-0.0438410785
-0.03907713446
-0.03159114013
-0.0222302423
-0.01286068488
-0.006132963857
-0.005487150755
-0.01045161188
-0.03401459441
-0.03411404144
-0.03448356927
-0.03507798343
-0.03652511305
-0.03898703322
-0.0424321892
-0.04664592148
-0.05123481886
-0.05561793172
-0.05902662468
-0.06054646214
-0.0591676861
-0.05408901637
-0.04492813805
-0.03224470013
-0.01805725325
-0.005903835932
-0.001372704868
-0.004595843891
-0.04226260524
-0.04195305932
-0.04187462696
-0.04196209357
-0.04314639705
-0.04569766304
-0.04961963876
-0.05468097839
-0.06042878958
-0.06618477564
-0.07102967165
-0.07382788707
-0.07329249472
-0.06818929269
-0.05764251844
-0.04168345503
-0.02210844733
-0.002967121479
0.007598214524
0.008558828746
-0.05165616065
-0.05043201389
-0.04936360715
-0.04826336951
-0.04858782917
-0.05073666681
-0.05473235797
-0.06030112225
-0.06689940809
-0.07373807258
-0.07974477994
-0.08357890437
-0.08369642699
-0.07847130355
-0.06654128085
-0.04727005422
-0.02190947041
0.005694399212
0.02488356603
0.03366271964
-0.06331817209
-0.0598803344
-0.0568141573
-0.05349327392
-0.05218160835
-0.05335705172
-0.05698476301
-0.06270859674
-0.06979211487
-0.07731991836
-0.0840346486
-0.08838275272
-0.08859030725
-0.08259844841
-0.0686843144
-0.04550544697
-0.01367366755
0.024488691
0.05560184431
0.07739963208
-0.07989084559
-0.07081122573
-0.06389457367
-0.05696309261
-0.05322401326
-0.05296943037
-0.05595516473
-0.06155149775
-0.068853908
-0.07669980661
-0.08361897757
-0.08781422833
-0.08720854617
-0.07950205305
-0.06241520407
-0.03405390382
0.005484055869
0.05860503567
0.1057912104
0.1480288717
-0.1102754999
-0.08565648107
-0.07145570189
-0.05885038706
-0.05179208333
-0.04971643841
-0.05187114802
-0.05721097447
-0.06451315563
-0.07234546897
-0.07899899988
-0.08243203746
-0.08033613061
-0.06978906716
-0.04822435289
-0.0127858555
0.03812725736
0.107030268
0.177874693
0.2563679097
-0.1682655156
-0.09976469489
-0.07492143635
-0.05474419454
-0.04455890316
-0.04147851023
-0.0435419194
-0.04913477511
-0.05671638305
-0.06464665029
-0.07105083314
-0.07371628635
-0.06993601964
-0.05692524521
-0.03103075525
0.01185482024
0.07547786865
0.166269526
0.276023859
0.4375741382
-0.3982608289
-0.137969616
-0.07490087122
-0.04705831169
-0.03351652743
-0.02995355242
-0.03265819716
-0.03904986486
-0.0472871573
-0.0556393548
-0.06220681342
-0.06477663286
-0.06080929492
-0.04687054826
-0.01874151702
0.02988078971
0.1068527624
0.2333043047
0.419752023
0.7798998759
)
;

boundaryField
{
    movingWall
    {
        type            zeroGradient;
    }
    fixedWalls
    {
        type            zeroGradient;
    }
    frontAndBack
    {
        type            empty;
    }
}


// ************************************************************************* //
