/*--------------------------------*- C++ -*----------------------------------*\
  =========                 |
  \\      /  F ield         | OpenFOAM: The Open Source CFD Toolbox
   \\    /   O peration     | Website:  https://openfoam.org
    \\  /    A nd           | Version:  13
     \\/     M anipulation  |
\*---------------------------------------------------------------------------*/
FoamFile
{
    format      ascii;
    class       volScalarField;
    location    "12";
    object      p;
}
// * * * * * * * * * * * * * * * * * * * * * * * * * * * * * * * * * * * * * //

dimensions      [0 2 -2 0 0 0 0];

internalField   nonuniform List<scalar> 
400
(
1.35863934e-08
-0.0004006856921
-0.0008537939357
-0.001149500677
-0.001191939784
-0.0009461727677
-0.0004032524612
0.0004305190833
0.001532312536
0.002855624031
0.004322375197
0.005819453306
0.00720480066
0.008325817797
0.009049836457
0.009301159
0.009094243004
0.00855237991
0.007906680264
0.007447783645
0.0004023821793
-1.137050552e-05
-0.0003992572647
-0.0006216070189
-0.0006227855921
-0.0003832651905
0.0001038118225
0.0008360160343
0.001797525227
0.002951729169
0.004233751133
0.005547177327
0.006768848535
0.007765297989
0.008419921135
0.008665632392
0.008512343626
0.008058600341
0.00748536851
0.00701452202
0.000872999274
0.0003460705188
-6.636828174e-05
-0.0002711689973
-0.0002639759955
-4.861652618e-05
0.0003768764451
0.001014940577
0.001859916978
0.002888245377
0.004048964982
0.005258062983
0.006401210339
0.007348148596
0.007979350403
0.008219228392
0.008063837266
0.00758993588
0.00694516456
0.006329939485
0.001171748311
0.0004903557578
-4.167104926e-06
-0.0002407812717
-0.0002588382903
-8.583221069e-05
0.000274899843
0.0008318703265
0.001592100605
0.002547612786
0.003662057629
0.004860782701
0.006029551423
0.007026603229
0.007710111201
0.007975956519
0.007792301574
0.007214998879
0.006386115217
0.005533778833
0.001127289674
0.0002835587061
-0.000314855764
-0.0006113800884
-0.0006808404767
-0.0005701527736
-0.000285042162
0.0001920179566
0.0008841286879
0.001802535689
0.002928458517
0.004197223272
0.005490893045
0.006645953867
0.007481044794
0.007841786959
0.007649021882
0.006931580441
0.005845644077
0.004681009361
0.0006040329829
-0.0003954750066
-0.001103854918
-0.001476872111
-0.001620444937
-0.001596848408
-0.001410566954
-0.001031259407
-0.000415016332
0.0004748230728
0.00164442234
0.003045875406
0.004560850948
0.005999390103
0.007124505944
0.007704193498
0.007580118029
0.006731932234
0.005335304204
0.003774655369
-0.000517337321
-0.001660482507
-0.002480285108
-0.002943839702
-0.003187355164
-0.003286182845
-0.003240798174
-0.003004346377
-0.002506288703
-0.001675323692
-0.000467276923
0.001102310969
0.002928061689
0.004797952403
0.006406445945
0.007409220839
0.007517403705
0.006612073082
0.00487101186
0.002811477313
-0.002344030066
-0.003615850299
-0.004548013918
-0.005117921745
-0.005494499528
-0.005766355793
-0.005929085146
-0.005916823199
-0.005626440077
-0.004940208975
-0.003756627772
-0.002033084208
0.0001665339099
0.002628411961
0.004976096007
0.006714616007
0.007348610782
0.006568574385
0.004495607621
0.001821017229
-0.004969861547
-0.00635237088
-0.007396901041
-0.008089855707
-0.008638852864
-0.009149151495
-0.009613511143
-0.009947089049
-0.0100097661
-0.009625013835
-0.008610063517
-0.006827398919
-0.004252709797
-0.001056182363
0.002336600378
0.005251020913
0.006887388754
0.006594876242
0.004305699254
0.0009128924086
-0.008472225566
-0.009942645279
-0.01109370294
-0.01191936086
-0.01267675957
-0.0134955109
-0.01437142456
-0.01520449499
-0.01581686625
-0.01596357066
-0.01535645793
-0.01371761046
-0.01087291508
-0.006870580301
-0.002122338703
0.002522912076
0.005861292101
0.006685489813
0.004491794298
0.0003483978794
-0.01291142458
-0.01443840603
-0.01567292947
-0.01661588423
-0.01759262803
-0.01877056392
-0.02015858415
-0.02164942203
-0.02303171306
-0.02398831168
-0.02410703912
-0.02292732437
-0.02005579713
-0.01531038706
-0.008973739896
-0.001995870295
0.003958567242
0.006870350254
0.005405319952
0.0006580775492
-0.01833960476
-0.01987455387
-0.02113026402
-0.02211816032
-0.02326428024
-0.02479455973
-0.02674399251
-0.02900810944
-0.03135000877
-0.03338385879
-0.03456734581
-0.03423538329
-0.03169364624
-0.02643523888
-0.01844812682
-0.008615713299
0.0009906855017
0.007318953103
0.007674093643
0.002833822375
-0.02483211344
-0.02628750717
-0.02742205799
-0.02827573809
-0.02943169107
-0.03120299551
-0.03366273742
-0.03671611221
-0.04010710063
-0.0433882504
-0.04589218056
-0.04674023141
-0.04492170124
-0.03950627851
-0.03002121647
-0.0170327427
-0.002792146298
0.00855849029
0.01239545678
0.008623017657
-0.03256753487
-0.03375955141
-0.03447357488
-0.03483511359
-0.03567815061
-0.03743450732
-0.0402168775
-0.04393439503
-0.04830755708
-0.05282856603
-0.05671431103
-0.05888866141
-0.05803644834
-0.0527798509
-0.0420720847
-0.02589279391
-0.006268468634
0.01182247349
0.02143243607
0.02091547292
-0.04200819998
-0.04250717979
-0.04219726203
-0.0414329582
-0.04143544221
-0.04276696365
-0.04555141179
-0.04967044255
-0.05479498891
-0.06034090911
-0.06540892405
-0.06874491076
-0.06876421956
-0.06368590984
-0.05188015875
-0.03255988845
-0.007045466259
0.01947886555
0.03779025036
0.04406763025
-0.05422443382
-0.05303745996
-0.05052037811
-0.04759903581
-0.04602411689
-0.0464125397
-0.04880709807
-0.05299143887
-0.05853151704
-0.06472713691
-0.07053921222
-0.07453822148
-0.07490209276
-0.06950337834
-0.05620339242
-0.03342366328
-0.001399826596
0.03536526323
0.06597949386
0.08379815628
-0.07145026284
-0.06641165249
-0.05934344071
-0.05269304906
-0.04866424505
-0.04760091765
-0.04926333493
-0.0532216267
-0.05885489521
-0.06528483722
-0.07129958632
-0.075273602
-0.07514091127
-0.06844261462
-0.05257002881
-0.02518218024
0.01478909312
0.06450052192
0.112447576
0.1475795425
-0.1005398044
-0.08485427033
-0.06800851609
-0.05539506925
-0.04814195486
-0.04538389608
-0.04624658284
-0.04992822762
-0.05552977152
-0.06194737945
-0.0677944585
-0.07122969439
-0.06991052832
-0.06100258373
-0.04131504176
-0.007609027311
0.0429145265
0.1104591048
0.1860600832
0.2529095715
-0.1728779465
-0.1122329479
-0.07270357552
-0.05194066116
-0.04188510337
-0.03817829911
-0.03894342082
-0.0429109816
-0.04884848397
-0.05542796839
-0.06119054166
-0.06420238345
-0.06184135422
-0.05090648777
-0.02755436277
0.01279780554
0.07600599676
0.1686617495
0.2945665782
0.4451052446
-0.3527791778
-0.1524646713
-0.06886606104
-0.04230552601
-0.03166011199
-0.02793489321
-0.02926280815
-0.0340847739
-0.04087165009
-0.04815737868
-0.05434096977
-0.05741819369
-0.05478620553
-0.04316951234
-0.01812035446
0.02672313111
0.1016464294
0.225359001
0.4269099307
0.7291078707
)
;

boundaryField
{
    movingWall
    {
        type            zeroGradient;
    }
    fixedWalls
    {
        type            zeroGradient;
    }
    frontAndBack
    {
        type            empty;
    }
}


// ************************************************************************* //
