/*--------------------------------*- C++ -*----------------------------------*\
  =========                 |
  \\      /  F ield         | OpenFOAM: The Open Source CFD Toolbox
   \\    /   O peration     | Website:  https://openfoam.org
    \\  /    A nd           | Version:  13
     \\/     M anipulation  |
\*---------------------------------------------------------------------------*/
FoamFile
{
    format      ascii;
    class       surfaceScalarField;
    location    "12";
    object      phi;
}
// * * * * * * * * * * * * * * * * * * * * * * * * * * * * * * * * * * * * * //

dimensions      [0 3 -1 0 0 0 0];

internalField   nonuniform List<scalar> 
760
(
-1.320693893e-05
1.320208047e-05
-7.140705732e-05
5.820022007e-05
-0.0001604046543
8.899750097e-05
-0.0002623019726
0.0001018973413
-0.0003640860091
0.0001017842142
-0.0004562882387
9.22023135e-05
-0.0005317670563
7.547882686e-05
-0.000584867965
5.310091793e-05
-0.0006111675686
2.629964448e-05
-0.0006077103497
-3.45716223e-06
-0.0005734440727
-3.42662297e-05
-0.0005099998408
-6.34441936e-05
-0.0004221642301
-8.783559069e-05
-0.0003181379851
-0.0001040262324
-0.0002092509401
-0.00010888704
-0.0001089788601
-0.0001002720785
-3.110545608e-05
-7.787339177e-05
1.311427753e-05
-4.421971221e-05
2.135000191e-05
-8.235702454e-06
2.134999157e-05
-6.789141806e-05
8.109340238e-05
-0.0002426703617
0.0002329791279
-0.0004870707733
0.0003333981572
-0.0007621788335
0.0003770055663
-0.001036732837
0.0003763383507
-0.001286283202
0.0003417527474
-0.00149167424
0.0002808699156
-0.001637784969
0.000199211691
-0.001713112157
0.0001016268741
-0.00171037851
-6.190766624e-06
-0.001627114488
-0.0001175302348
-0.001467730424
-0.0002228282577
-0.001244220704
-0.0003113453219
-0.0009767385347
-0.0003715084148
-0.0006928371115
-0.0003927884678
-0.0004249284357
-0.0003681807475
-0.0002056611462
-0.0002971406947
-6.084736408e-05
-0.0001890335322
-1.044869916e-06
-6.803830758e-05
2.030509105e-05
-0.0001211843637
0.0002022777879
-0.0004090400941
0.0005208349128
-0.000797148165
0.000721506323
-0.001229569313
0.000809426791
-0.001661260678
0.0008080298161
-0.002056097851
0.000736589978
-0.002385025003
0.0006097971043
-0.002624651716
0.0004388384325
-0.002756867985
0.0002338431877
-0.002769739525
6.680818266e-06
-0.002658387949
-0.0002288817647
-0.002427871831
-0.0004533443544
-0.00209433247
-0.0006448846717
-0.001686065381
-0.000779775493
-0.001242730653
-0.0008361231726
-0.0008119969506
-0.0007989143989
-0.0004429230495
-0.0006662145564
-0.0001761130147
-0.0004558435721
-3.240233955e-05
-0.0002117490975
-1.2097282e-05
-0.0001694671912
0.0003717450532
-0.0005639892105
0.0009153570301
-0.001089661733
0.001247178897
-0.001673452454
0.00139321755
-0.002258155132
0.001392732524
-0.002798114644
0.001276549496
-0.00325608045
0.001067762899
-0.003601213578
0.0007839715235
-0.003808540381
0.0004411699511
-0.003859616595
5.775701898e-05
-0.003745121548
-0.0003433768268
-0.003466707867
-0.0007317580455
-0.00304050598
-0.00107108656
-0.002499044975
-0.001321236486
-0.001891530342
-0.001443637784
-0.001280800089
-0.001409644628
-0.0007356514981
-0.001211363139
-0.0003184523576
-0.0008730427284
-7.084945101e-05
-0.0004593520938
-8.294671807e-05
-0.0002137383657
0.00058548342
-0.0007081630572
0.001409781763
-0.001365501591
0.001904517423
-0.002096879525
0.002124595504
-0.002834557068
0.002130410059
-0.003525154608
0.001967147038
-0.004124658309
0.001667266612
-0.004595312771
0.001254625978
-0.004904505225
0.0007503623985
-0.005025475599
0.0001787273937
-0.004940037006
-0.000428815412
-0.004641884697
-0.001029910345
-0.004141582835
-0.001571388405
-0.003470921206
-0.001991898085
-0.002685822637
-0.002228736324
-0.001865350714
-0.002230116544
-0.001104153898
-0.001972559989
-0.0004969818412
-0.001480214819
-0.0001182992029
-0.0008380347916
-0.0002012458149
-0.0002536875257
0.000839170939
-0.0008394118777
0.001995506125
-0.001619778985
0.002684884501
-0.002492761444
0.002997577965
-0.003382357363
0.003020005919
-0.004229506127
0.002814295775
-0.004985014098
0.002422774575
-0.005604914981
0.00187452681
-0.006048376478
0.001193823836
-0.006278035814
0.0004083866828
-0.00626294387
-0.0004439073945
-0.005983042913
-0.001309811333
-0.005436449753
-0.002117981584
-0.004647274159
-0.00278107367
-0.003673120236
-0.00320289023
-0.00260874156
-0.003294495229
-0.00158099878
-0.003000302815
-0.0007304080898
-0.002330805511
-0.0001806536394
-0.001387789225
-0.0003818993187
-0.0002874765783
0.00112664751
-0.0009520335112
0.002660063045
-0.001841230605
0.00357408156
-0.002843590911
0.003999938276
-0.003877749099
0.004054164013
-0.004881467758
0.003818014395
-0.005802477283
0.003343784094
-0.006592030695
0.002664080167
-0.007201434667
0.001803227723
-0.007581545202
0.0007884971357
-0.007685557684
-0.0003398949837
-0.007474207632
-0.001521161436
-0.006925429343
-0.002666759902
-0.006046207106
-0.003660295919
-0.004886590515
-0.004362506838
-0.003551572534
-0.004629513256
-0.002203279445
-0.004348595967
-0.001042769839
-0.003491315106
-0.0002663686596
-0.002164190338
-0.0006482678957
-0.0003126469354
0.001439294434
-0.001037742794
0.00338515888
-0.002013448775
0.00454978752
-0.003122875607
0.005109365141
-0.004282492957
0.005213781279
-0.005429777611
0.004965299044
-0.006512168118
0.004426174638
-0.007478734108
0.003630646136
-0.008275033295
0.002599526831
-0.008841237394
0.001354701138
-0.00911412948
-6.700297678e-05
-0.009031723106
-0.001603567888
-0.00854487451
-0.003153608544
-0.007632176038
-0.004572994423
-0.006321628452
-0.005673054481
-0.004714576523
-0.00623656528
-0.003002781407
-0.00606039116
-0.001459679422
-0.005034417066
-0.000385538538
-0.003238331175
-0.001033806467
-0.000326689841
0.001765984263
-0.001087842935
0.004146311961
-0.002118206794
0.005580151385
-0.003299334314
0.00629049273
-0.004548640329
0.006463087228
-0.005806353494
0.00622301224
-0.00702301676
0.005642837987
-0.008149456018
0.00475708542
-0.009129876012
0.003579946771
-0.0098982481
0.002123073145
-0.01037772857
0.0004124774053
-0.01048584238
-0.001495454136
-0.01014212395
-0.00349732701
-0.009286380437
-0.005428737968
-0.007906008414
-0.007053426569
-0.006074279879
-0.008068293948
-0.003991603328
-0.008143067806
-0.002003497061
-0.007022523306
-0.0005495866492
-0.004692241658
-0.001583393248
-0.0003284720656
0.002094456332
-0.001096663443
0.00491450334
-0.002140921846
0.006624409822
-0.003344261796
0.007493832777
-0.004627753063
0.00774657845
-0.005937321908
0.007532581141
-0.007230367327
0.00693588351
-0.008464507179
0.005991225333
-0.009589174226
0.004704613791
-0.01054003198
0.003073930824
-0.01123604503
0.001108490391
-0.01158016104
-0.001151338179
-0.01146469951
-0.003612788545
-0.01078541215
-0.006108025333
-0.00947100558
-0.008367833166
-0.007533660942
-0.01000563868
-0.005141151037
-0.01053557777
-0.002684974814
-0.009478699482
-0.0007706471441
-0.006606569551
-0.00235404052
-0.0003200595124
0.002414515881
-0.001066070514
0.005660514353
-0.002077940293
0.00763627965
-0.003241720198
0.008657612785
-0.004484494974
0.008989353198
-0.005760806328
0.008808892563
-0.007038809773
0.008213887054
-0.008288484948
0.007240900563
-0.009472389198
0.005888518028
-0.01053849159
0.00414003314
-0.0114143955
0.001984394278
-0.01200258403
-0.0005631497011
-0.01218101611
-0.003434356389
-0.0118063969
-0.006482644438
-0.01073916365
-0.009435066363
-0.008897209467
-0.01184759289
-0.0063564815
-0.01307630573
-0.00348951907
-0.01234566184
-0.001059759457
-0.00903632949
-0.003413799983
-0.0003090839629
0.002723599904
-0.001010806378
0.006362236762
-0.001944752663
0.008570225978
-0.002999890079
0.009712750271
-0.004112106823
0.01010156992
-0.005248142907
0.009944928722
-0.006391067498
0.009356811742
-0.007528615574
0.008378448676
-0.008644031356
0.007003933756
-0.009708299297
0.005204300963
-0.01067230175
0.002948396696
-0.01145605904
0.0002206075745
-0.01194506904
-0.002945346334
-0.01197580973
-0.006451903584
-0.01134850239
-0.01006237357
-0.009867778271
-0.01332831694
-0.007454959566
-0.01548912433
-0.00435823495
-0.01544238637
-0.00142284624
-0.01197171853
-0.004836646138
-0.0003120838634
0.003035683823
-0.0009645163905
0.007014669238
-0.001783702069
0.009389411683
-0.002660455516
0.01058950373
-0.003544625881
0.01098574025
-0.004420949019
0.01082125193
-0.00529247556
0.0102283384
-0.006169433041
0.009255406223
-0.007061170223
0.007895670876
-0.007969307041
0.006112437637
-0.008879176536
0.003858266088
-0.009749836805
0.001091267803
-0.01049265649
-0.002202526558
-0.01095953816
-0.005985021741
-0.0109214962
-0.01010041535
-0.01008108612
-0.01416872688
-0.008163962885
-0.01740624733
-0.00516786328
-0.01843848583
-0.001853067143
-0.01528651477
-0.006689713192
-0.0003596667653
0.003395350615
-0.0009863782299
0.007641380585
-0.001669052618
0.0100720861
-0.002301422027
0.01122187314
-0.002858365906
0.01154268412
-0.003352871531
0.01131575763
-0.003814977121
0.01069044413
-0.004281579992
0.009722009248
-0.004790434534
0.008404525346
-0.005376067902
0.006698071084
-0.006063145168
0.004545343231
-0.006856332673
0.001884455232
-0.007720824346
-0.001338034862
-0.008556196295
-0.005149649649
-0.009156490482
-0.009500120982
-0.009173677889
-0.01415153934
-0.008146676246
-0.01843324872
-0.005718128299
-0.02086703362
-0.0023189983
-0.01868564463
-0.009008711544
-0.0005055931439
0.00390094376
-0.001167231619
0.008303018888
-0.001703549939
0.01060840441
-0.002023134385
0.01154145764
-0.002148676234
0.011668226
-0.002138275188
0.01130535663
-0.002058196828
0.01061036581
-0.001975736057
0.009639548832
-0.0019559841
0.008384773327
-0.002063319863
0.006805406895
-0.002358139982
0.004840163293
-0.0028909627
0.002417277896
-0.003689444272
-0.0005395532407
-0.004729091681
-0.004110002073
-0.005885704499
-0.008343507937
-0.006847245399
-0.01318999829
-0.007043023255
-0.01823747086
-0.005729198123
-0.02218085882
-0.002742536268
-0.02167230656
-0.01175124746
-0.0008362268656
0.004737170619
-0.001621650051
0.009088441929
-0.001982027848
0.01096878203
-0.001884953479
0.01144438338
-0.001444117982
0.01122739058
-0.0007873367744
0.01064857547
-2.844079617e-05
0.009851469951
0.0007359260394
0.00887518207
0.001414098677
0.00770660085
0.001919068172
0.006300437442
0.002163211304
0.004596020137
0.002058805859
0.002521683329
0.001518483221
7.694032275e-07
0.0004877992033
-0.00307931799
-0.001033349466
-0.006822359274
-0.002868021652
-0.01135532605
-0.004488239651
-0.01661725317
-0.004826195441
-0.0218429026
-0.002948980317
-0.02354952207
-0.01470022796
-0.001469983855
0.006207154431
-0.002394323834
0.01001278198
-0.002401374404
0.01097583221
-0.001645805965
0.01068881508
-0.0004051966261
0.009986781418
0.001097397069
0.009145982279
0.002698411945
0.008250455163
0.004272550135
0.007301044168
0.00571465877
0.006264492242
0.006924050346
0.005091045735
0.007796683486
0.003723386813
0.008219701284
0.002098665377
0.00807023635
0.0001502342102
0.007217927633
-0.002227009092
0.005545939852
-0.005150371416
0.003042522807
-0.008851909199
5.863646487e-05
-0.01363336661
-0.002459594326
-0.01932467213
-0.002606012486
-0.02340310352
-0.01730624048
-0.002367242306
0.008574396561
-0.00297175089
0.01061729109
-0.001940771849
0.009944853024
5.111836726e-05
0.008696924839
0.002493155739
0.007544743903
0.005088330401
0.006550807748
0.007660424224
0.00567836137
0.01009126336
0.004870205068
0.01228569798
0.00407005754
0.0141508018
0.003225941733
0.01558460898
0.00228957942
0.01646882168
0.001214452477
0.01665498119
-3.592521194e-05
0.01599273777
-0.001564765628
0.01427753043
-0.003435163905
0.01131110641
-0.005885484512
0.007038295658
-0.009360556416
0.002190952406
-0.01447732857
-0.001031965719
-0.0201801855
-0.01833820608
-0.00214918141
0.01072357776
-7.20158899e-05
0.008540126118
0.003737311981
0.006135525234
0.007707638392
0.004726598473
0.01154067169
0.003711710657
0.01511102366
0.002980455862
0.01836170521
0.002427679893
0.02125977361
0.001972136743
0.02376900358
0.001560827588
0.02583759078
0.001157354537
0.0273921665
0.000735003722
0.02833173618
0.0002748830834
0.02854998928
-0.0002541781463
0.02786832756
-0.0008831036174
0.02608553125
-0.001652367917
0.02289854966
-0.00269850251
0.01789965613
-0.004361663175
0.01076207974
-0.007339752158
0.002910088375
-0.01232819415
-0.0154281179
0.01072357745
0.01926370351
0.02539922868
0.03012582707
0.0338375377
0.03681799352
0.03924567333
0.04121781001
0.0427786376
0.04393599227
0.04467099605
0.04494587921
0.04469170115
0.04380859753
0.04215622961
0.03945772743
0.03509606424
0.02775631198
0.01542811795
)
;

boundaryField
{
    movingWall
    {
        type            calculated;
        value           uniform 0;
    }
    fixedWalls
    {
        type            calculated;
        value           uniform 0;
    }
    frontAndBack
    {
        type            empty;
    }
}


// ************************************************************************* //
