/*--------------------------------*- C++ -*----------------------------------*\
  =========                 |
  \\      /  F ield         | OpenFOAM: The Open Source CFD Toolbox
   \\    /   O peration     | Website:  https://openfoam.org
    \\  /    A nd           | Version:  13
     \\/     M anipulation  |
\*---------------------------------------------------------------------------*/
FoamFile
{
    format      ascii;
    class       surfaceScalarField;
    location    "12";
    object      phi_0;
}
// * * * * * * * * * * * * * * * * * * * * * * * * * * * * * * * * * * * * * //

dimensions      [0 3 -1 0 0 0 0];

internalField   nonuniform List<scalar> 
760
(
-1.006806288e-07
1.011215666e-07
-3.798210123e-05
3.788121669e-05
-0.0001133554144
7.53728386e-05
-0.0002133430173
9.998719213e-05
-0.0003251826167
0.0001118396597
-0.0004382051328
0.000113022958
-0.0005433863147
0.0001051817891
-0.0006324709421
8.908497542e-05
-0.0006974776656
6.500697969e-05
-0.0007308880415
3.341070368e-05
-0.0007265555715
-4.332344912e-06
-0.0006811954918
-4.535974098e-05
-0.0005960830709
-8.511227949e-05
-0.0004784530504
-0.0001176300247
-0.0003419428048
-0.0001365102811
-0.0002054805027
-0.0001364622616
-9.030398419e-05
-0.0001151766747
-1.51604267e-05
-7.51439626e-05
1.049522508e-05
-2.565625866e-05
1.049484899e-05
-3.957675335e-05
3.967776037e-05
-0.0001673379861
0.0001656414519
-0.0003727639282
0.0002807977575
-0.0006294666992
0.0003566899344
-0.0009103530709
0.0003927267738
-0.001191012443
0.0003936831857
-0.001449618126
0.0003637885086
-0.001665949521
0.0003054176068
-0.001820944413
0.0002200022919
-0.001897438785
0.0001099056554
-0.001882238309
-1.953200474e-05
-0.001769156994
-0.0001584400642
-0.001562434361
-0.0002918346329
-0.001279333049
-0.0004007310998
-0.0009507485924
-0.0004650950207
-0.0006185438949
-0.000468667596
-0.000328904709
-0.0004048166523
-0.0001219489489
-0.0002821006049
-1.880590274e-05
-0.0001287999639
-8.311665769e-06
-8.587298926e-05
0.0001255502802
-0.0003097640042
0.0003895312595
-0.0006357513692
0.0006067846436
-0.001025934904
0.0007468736533
-0.00144397816
0.0008107716288
-0.001856831189
0.0008065378551
-0.002234359217
0.0007413170881
-0.002548445912
0.0006195052448
-0.00277279301
0.000444350497
-0.002884060139
0.0002211735372
-0.002864482109
-3.910906282e-05
-0.002705647958
-0.0003172726816
-0.002412700864
-0.0005847813621
-0.002007816182
-0.0008056163642
-0.001531413885
-0.0009414983696
-0.001039395571
-0.0009606863156
-0.0005951101785
-0.0008491031199
-0.0002561502661
-0.0006210629747
-5.857977255e-05
-0.0003263690354
-6.689211965e-05
-0.0001281776013
0.0002537275301
-0.0004425787597
0.0007039318052
-0.0008809243453
0.001045130762
-0.001391908614
0.001257858698
-0.001931099187
0.001349963253
-0.002459493889
0.001334933355
-0.002941740005
0.001223563297
-0.003344661231
0.001022426759
-0.003636857187
0.0007365480236
-0.0037898462
0.0003741639854
-0.003780867158
-4.80872597e-05
-0.003597140988
-0.0005009983511
-0.003241009039
-0.0009409131644
-0.002734898163
-0.001311726787
-0.002124372889
-0.001552023549
-0.001476865295
-0.001608193512
-0.0008736567706
-0.001452312346
-0.0003943421969
-0.001100377904
-9.723601643e-05
-0.0006234754129
-0.0001641290082
-0.0001659744319
0.0004197016796
-0.0005636159846
0.001101573532
-0.001106339324
0.00158785461
-0.001729482184
0.001881001896
-0.002381262883
0.002001743952
-0.003018432066
0.001972102589
-0.003602553718
0.001807685354
-0.004097339774
0.001517212998
-0.004467492782
0.001106702049
-0.004679369032
0.0005860416032
-0.004703606543
-2.384805383e-05
-0.004519741968
-0.0006848621692
-0.004122571512
-0.001338083813
-0.003529489055
-0.001904808604
-0.002786964373
-0.002294547192
-0.001972831715
-0.002422325174
-0.00118999844
-0.002235145181
-0.0005484250322
-0.001741950848
-0.0001381605751
-0.001033742265
-0.0003022902853
-0.0002000964146
0.0006197979719
-0.000673973122
0.00157545063
-0.001313419119
0.002227300878
-0.002041571473
0.002609154268
-0.002800434017
0.002760605752
-0.00354406372
0.002715731287
-0.004232736597
0.002496358026
-0.004828661611
0.002113138714
-0.005293575067
0.001571617206
-0.005588434745
0.0008809024417
-0.005675442018
6.31607428e-05
-0.005522763054
-0.0008375401475
-0.005112171905
-0.001748674639
-0.004449471015
-0.002567508651
-0.003576046297
-0.003167970391
-0.002577431235
-0.003420940519
-0.001581741409
-0.003230835023
-0.0007401527938
-0.002583542057
-0.0001886047339
-0.001585292525
-0.0004908957449
-0.0002311756319
0.000850973704
-0.0007744082601
0.002118683704
-0.001502501838
0.00295539437
-0.002327890358
0.003434541635
-0.003187801025
0.003620514648
-0.00403526678
0.003563195967
-0.004831119158
0.003292210527
-0.005537812998
0.00281983353
-0.006115396271
0.002149202175
-0.006519782072
0.001285288953
-0.006703650574
0.0002470302472
-0.006620701366
-0.0009204888221
-0.006234163175
-0.002135212145
-0.005530320503
-0.003271351327
-0.004536382386
-0.004161908119
-0.00333852968
-0.004618794589
-0.002090236361
-0.004479128416
-0.000995606719
-0.003678175689
-0.0002574645524
-0.002323434798
-0.0007483606463
-0.0002593680194
0.001110341864
-0.0008644188866
0.002723734124
-0.001671365606
0.00376234
-0.002583276237
0.004346450552
-0.003534085095
0.004571321663
-0.004477581239
0.004506691186
-0.005377200523
0.004191830328
-0.006197833928
0.003640467872
-0.006899957396
0.002851326604
-0.007436133388
0.001821464856
-0.00775021118
0.0005611087403
-0.007780239957
-0.0008904601629
-0.007466676918
-0.002448773851
-0.006767918637
-0.003970108985
-0.005684480668
-0.005245346461
-0.004289353035
-0.006013923075
-0.002753594183
-0.006014887025
-0.001342779863
-0.005088990459
-0.0003549898853
-0.003311224992
-0.001103350375
-0.0002845871188
0.001394928953
-0.0009426281713
0.003381774073
-0.00181559636
0.004635306263
-0.002797989688
0.00532884219
-0.00382173995
0.005595070729
-0.00484318516
0.005528135498
-0.005830623072
0.005179268094
-0.006754118779
0.004563963607
-0.007577803611
0.003675011872
-0.00825447014
0.002498131338
-0.008722572723
0.00102921287
-0.008906682183
-0.0007063504413
-0.008723615789
-0.002631839325
-0.008097282594
-0.004596440734
-0.006987025847
-0.006355602954
-0.005430965621
-0.007569982042
-0.003596788372
-0.00784906469
-0.001808934547
-0.006876842097
-0.0004930161092
-0.004627145474
-0.001596367959
-0.0003071155415
0.001702044269
-0.001008183472
0.004082840801
-0.001930503198
0.005557624165
-0.002959930737
0.006358268466
-0.004027394281
0.006662533589
-0.005093550169
0.006594290579
-0.006133968212
0.006219685064
-0.007127098444
0.005557092346
-0.008045035146
0.00459294859
-0.008846400886
0.003299497717
-0.00947097267
0.001653786414
-0.009836495616
-0.0003408256495
-0.009840986516
-0.002627347256
-0.009372341807
-0.005065084359
-0.008336181662
-0.007391763493
-0.006708363726
-0.009197799359
-0.004615392239
-0.009942038511
-0.002415006298
-0.009077229296
-0.0006850361412
-0.00635711525
-0.00228140398
-0.0003286943941
0.002030738393
-0.001063231898
0.004817377486
-0.002014550172
0.006508940899
-0.003058728343
0.007402445188
-0.00412664779
0.007730451665
-0.005185257656
0.007652899065
-0.006219989204
0.007254415089
-0.007221156007
0.006558257233
-0.00817379108
0.00554558352
-0.009049443902
0.004175152994
-0.009798829097
0.002403172576
-0.01034438051
0.0002047252303
-0.01057709566
-0.002394633869
-0.01035619182
-0.005285989226
-0.009529088154
-0.008218866551
-0.007983176179
-0.01074370963
-0.005751176242
-0.01217403643
-0.003163916348
-0.01166449089
-0.0009453221243
-0.008575708403
-0.003226723132
-0.0003543131185
0.002385051133
-0.001116639313
0.00557970316
-0.002074158986
0.007466459421
-0.003091221842
0.00841950644
-0.004100543463
0.008739771132
-0.005078302464
0.008630656091
-0.006022840096
0.008198951326
-0.006939842691
0.007475259696
-0.007832165362
0.006437905371
-0.00869161142
0.00503459894
-0.00949043115
0.003201991692
-0.01017174153
0.0008860350591
-0.01063614282
-0.001930232914
-0.01073385039
-0.005188281722
-0.01026420963
-0.008688506171
-0.009012699216
-0.01199522165
-0.006862551449
-0.01432418341
-0.004020034119
-0.01450700823
-0.00128569418
-0.01131005299
-0.004512419076
-0.0003951121293
0.002780162991
-0.001189114857
0.006373705074
-0.002129225113
0.008406568882
-0.003066756066
0.009357036613
-0.003941340424
0.009614354229
-0.004743843824
0.009433158371
-0.005489688267
0.008944794182
-0.006203333862
0.00818890485
-0.00690927599
0.007143847427
-0.007625249683
0.00575057142
-0.008354434589
0.003931174896
-0.009074225416
0.001605825442
-0.009718546875
-0.001285910965
-0.01015619313
-0.004750635165
-0.01016823352
-0.008676465218
-0.009450889232
-0.01271256731
-0.007700704334
-0.01607436757
-0.004880290933
-0.01732741628
-0.001707413669
-0.01448292868
-0.006219831313
-0.0004731538124
0.003253316745
-0.001319539649
0.007220089804
-0.002217161863
0.009304190548
-0.003008071288
0.01014794658
-0.003651558599
0.01025784214
-0.004163608664
0.009945207313
-0.004582942877
0.009364126942
-0.004956039997
0.008562001584
-0.005330899324
0.007518707162
-0.005753300179
0.006172972139
-0.006261708976
0.004439582973
-0.006877566255
0.002221683159
-0.00758708358
-0.000576393022
-0.008310662424
-0.00402705677
-0.008858282639
-0.008128847156
-0.008884913813
-0.01268593548
-0.007907971535
-0.01705130828
-0.005543978809
-0.01969140954
-0.002184306688
-0.01784260302
-0.008404138806
-0.0006284196721
0.003881736399
-0.001569808889
0.008161478771
-0.002388018513
0.01012240056
-0.00293595847
0.01069588724
-0.003221049554
0.01054293442
-0.003302813242
0.01002697106
-0.00325214064
0.00931345335
-0.003140388957
0.00845024987
-0.003038345827
0.007416664009
-0.003017311003
0.006151936686
-0.003148454463
0.004570724896
-0.003497597409
0.002570824458
-0.004111872033
3.788129603e-05
-0.004989064933
-0.003149861653
-0.006021496888
-0.007096414321
-0.006904325506
-0.01180310565
-0.007049197153
-0.01690643845
-0.005692871294
-0.02104773952
-0.002631284249
-0.02090418603
-0.01103542313
-0.0009217350484
0.004803471424
-0.002013765627
0.009253510427
-0.002663332238
0.01077196811
-0.002800547359
0.01083310283
-0.002539704453
0.01028209174
-0.002012111873
0.009499379569
-0.001330604195
0.008631947412
-0.0005920370371
0.007711684613
0.0001143442338
0.006710283206
0.0006997997246
0.005566480742
0.001070195744
0.004200329356
0.001125051164
0.002515969393
0.0007639001323
0.0003990324392
-9.429566026e-05
-0.002291665952
-0.001462397529
-0.005728312008
-0.003170024744
-0.01009547617
-0.00466591047
-0.01541054899
-0.004890228584
-0.02082341855
-0.002850748529
-0.02294366521
-0.01388617238
-0.001413800411
0.00621727191
-0.002653700601
0.0104934119
-0.002857086905
0.01097535541
-0.0022403116
0.01021632656
-0.001130822657
0.009172602785
0.0002420617022
0.00812649675
0.001725763484
0.007148248192
0.003208383752
0.006229065332
0.004596195759
0.0053224697
0.005797216232
0.004365460336
0.006709745241
0.003287803604
0.007217828065
0.002007887264
0.007188822865
0.0004280351744
0.006478701198
-0.001581547488
0.004954775079
-0.004204386482
0.00258452279
-0.007725225472
-0.0003040243558
-0.01252200178
-0.00260231927
-0.01852512499
-0.00248819042
-0.02305779685
-0.01637436109
-0.002131494735
0.008348766691
-0.00299848201
0.01136039834
-0.001902790187
0.009879665783
0.0001333225634
0.008180215432
0.00250577707
0.006800149438
0.004945199544
0.005687075167
0.007314626811
0.004778821599
0.009529200452
0.004014492098
0.01152387439
0.003327795809
0.01323023094
0.002659103814
0.01456008586
0.001957948517
0.01540514541
0.001162829351
0.01562953372
0.0002036517609
0.01506468363
-0.001016695335
0.01350204378
-0.002641749335
0.01070006471
-0.00492324409
0.00657882771
-0.008400767059
0.001850273892
-0.01379657278
-0.001121787178
-0.02008573369
-0.01749615015
-0.002453081712
0.0108018484
2.868622138e-05
0.008878628252
0.004187476486
0.005720876002
0.008249678641
0.00411801483
0.01192444319
0.00312538488
0.01519965551
0.002411862929
0.01808540706
0.001893071236
0.02059578978
0.001504110372
0.02273329773
0.001190288072
0.02448132295
0.0009110789794
0.0258071382
0.0006321330818
0.02664600796
0.0003239572791
0.02688587902
-3.622179092e-05
0.02635964529
-0.0004904567341
0.02481610979
-0.001098215784
0.0219025996
-0.002009733184
0.01711025137
-0.003608422059
0.01004878085
-0.006735102503
0.002270554499
-0.01230750797
-0.01522559462
0.01080184868
0.01968047757
0.02540135367
0.02951936835
0.03264475369
0.03505661761
0.03694968873
0.0384537986
0.03964408849
0.04055516937
0.04118730101
0.04151125917
0.04147503667
0.04098457894
0.0398863626
0.03787662915
0.03426820855
0.02753310436
0.01522559472
)
;

boundaryField
{
    movingWall
    {
        type            calculated;
        value           uniform 0;
    }
    fixedWalls
    {
        type            calculated;
        value           uniform 0;
    }
    frontAndBack
    {
        type            empty;
    }
}


// ************************************************************************* //
