/*--------------------------------*- C++ -*----------------------------------*\
  =========                 |
  \\      /  F ield         | OpenFOAM: The Open Source CFD Toolbox
   \\    /   O peration     | Website:  https://openfoam.org
    \\  /    A nd           | Version:  13
     \\/     M anipulation  |
\*---------------------------------------------------------------------------*/
FoamFile
{
    format      ascii;
    class       surfaceScalarField;
    location    "12";
    object      phi_0;
}
// * * * * * * * * * * * * * * * * * * * * * * * * * * * * * * * * * * * * * //

dimensions      [0 3 -1 0 0 0 0];

internalField   nonuniform List<scalar> 
760
(
-1.320395442e-05
1.320492694e-05
-7.140276573e-05
5.819891992e-05
-0.000160396397
8.89937331e-05
-0.0002622889433
0.0001018923993
-0.0003640681918
0.0001017791484
-0.0004562661289
9.219792399e-05
-0.0005317417718
7.547564336e-05
-0.0005848410757
5.309928835e-05
-0.0006111408688
2.629977505e-05
-0.0006076856547
-3.455225872e-06
-0.0005734230423
-3.426261563e-05
-0.0005099837732
-6.34392721e-05
-0.0004221538496
-8.782992099e-05
-0.0003181333071
-0.0001040205346
-0.0002092511957
-0.0001088821012
-0.0001089825469
-0.0001002686359
-3.111056431e-05
-7.787197165e-05
1.310981925e-05
-4.422037244e-05
2.13476065e-05
-8.237787536e-06
2.134760998e-05
-6.788678476e-05
8.109168837e-05
-0.0002426561696
0.0002329682708
-0.0004870431225
0.0003333806563
-0.0007621360796
0.0003769852507
-0.001036675375
0.0003763183983
-0.001286213085
0.0003417356288
-0.001491594898
0.0002808574523
-0.001637700777
0.0001992051435
-0.001713027968
0.0001016269302
-0.001710299223
-6.184009955e-06
-0.001627044487
-0.0001175173906
-0.001467673166
-0.0002228106243
-0.001244178255
-0.0003113248654
-0.0009767112493
-0.0003714875697
-0.0006928235102
-0.0003927698599
-0.0004249253577
-0.000368166786
-0.0002056642216
-0.0002971330809
-6.085189575e-05
-0.0001890326253
-1.04720385e-06
-6.804237725e-05
2.030042311e-05
-0.0001211764342
0.0002022681581
-0.0004090146196
0.0005208063448
-0.0007970994165
0.0007214654142
-0.001229495345
0.0008093810562
-0.001661162546
0.0008079855501
-0.002055979077
0.0007365521575
-0.002384891049
0.0006097694333
-0.002624509357
0.0004388234456
-0.002756724703
0.0002338422604
-0.002769602369
6.693644953e-06
-0.002658264014
-0.0002288557527
-0.002427766467
-0.0004533081794
-0.002094249186
-0.0006448421581
-0.001686005382
-0.0007797313924
-0.001242692635
-0.0008360826333
-0.0008119772465
-0.0007988822101
-0.0004429161621
-0.0006661941895
-0.0001761127191
-0.000455836071
-3.240315866e-05
-0.00021175188
-1.210272451e-05
-0.0001694559111
0.000371724125
-0.0005639529746
0.0009153032787
-0.001089593064
0.001247105525
-0.001673349165
0.001393137105
-0.002258018904
0.00139265527
-0.002797950247
0.001276483491
-0.003255894942
0.001067714122
-0.003601015552
0.0007839440264
-0.003808339195
0.0004411658518
-0.003859421929
5.777631898e-05
-0.003744941867
-0.0003433358766
-0.003466550517
-0.0007316995954
-0.003040376244
-0.001071016499
-0.002498945559
-0.001321162146
-0.001891461012
-0.001443567238
-0.001280757637
-0.001409585635
-0.0007356301488
-0.00121132171
-0.0003184448252
-0.0008730214226
-7.08483742e-05
-0.0004593483089
-8.295109191e-05
-0.0002137243677
0.0005854485171
-0.0007081180701
0.001409696876
-0.001365416698
0.001904404169
-0.002096752227
0.002124472606
-0.002834389432
0.002130292449
-0.003524952235
0.001967046258
-0.004124429293
0.001667191152
-0.004595066862
0.001254581549
-0.004904253079
0.0007503520135
-0.005025228101
0.0001787512761
-0.004939804382
-0.0004287596631
-0.004641676006
-0.001029828044
-0.004141405289
-0.001571287294
-0.003470779526
-0.001991787996
-0.002685718443
-0.002228628403
-0.001865282127
-0.00223002202
-0.00110411555
-0.001972488329
-0.0004969656464
-0.001480171376
-0.0001182955867
-0.0008380184001
-0.0002012467193
-0.0002536718943
0.0008391204199
-0.0008393615044
0.001995386427
-0.001619683931
0.00268472659
-0.002492618789
0.002997407463
-0.003382169211
0.003019842851
-0.004229278377
0.002814155381
-0.004984755189
0.002422667947
-0.005604635028
0.001874461368
-0.006048086598
0.001193803545
-0.006277747488
0.0004084121137
-0.006262668272
-0.000443838937
-0.005982790396
-0.001309705987
-0.005436229295
-0.00211784847
-0.004647092673
-0.002780924704
-0.003672981733
-0.003202739442
-0.002608646288
-0.00329435756
-0.00158094261
-0.00300019207
-0.0007303826999
-0.002330731368
-0.0001806473564
-0.001387753804
-0.0003818941677
-0.0002874608003
0.001126581236
-0.0009519822523
0.002659907851
-0.001841133467
0.003573877754
-0.002843444516
0.003999718518
-0.003877555245
0.004053953539
-0.004881232115
0.003817832166
-0.005802207985
0.003343643763
-0.00659173746
0.002663990804
-0.007201128195
0.001803194233
-0.007581236638
0.0007885205011
-0.007685258202
-0.0003398174302
-0.007473927923
-0.001521036326
-0.006925179391
-0.00266659708
-0.006045995554
-0.003660108624
-0.004886423798
-0.004362311291
-0.003551453639
-0.004629327805
-0.002203206529
-0.004348439222
-0.001042735424
-0.003491202557
-0.0002663597087
-0.002164129616
-0.0006482539969
-0.0003126327441
0.001439213997
-0.001037695924
0.00338497103
-0.002013359061
0.004549540798
-0.003122739283
0.005109098763
-0.004282311286
0.005213525497
-0.005429555638
0.00496507641
-0.006511913164
0.004426001215
-0.007478454862
0.003630532456
-0.008274739228
0.002599478556
-0.008840938261
0.00135471949
-0.009113835416
-6.692032266e-05
-0.009031443453
-0.001603428338
-0.008544618796
-0.003153421792
-0.007631953369
-0.00457277411
-0.006321446946
-0.005672817786
-0.004714442035
-0.006236332776
-0.003002695495
-0.006060185764
-0.001459637153
-0.005034260957
-0.0003855270513
-0.003238239831
-0.001033781128
-0.0003266790355
0.001765893022
-0.001087805957
0.004146097979
-0.002118134512
0.005579869225
-0.003299222782
0.006290187079
-0.004548490201
0.006462792877
-0.005806168978
0.006222755072
-0.007022804083
0.005642636235
-0.008149222453
0.004756950777
-0.009129629203
0.003579885271
-0.00989799562
0.002123085877
-0.01037747721
0.0004125612477
-0.01048559937
-0.001495306212
-0.01014189616
-0.003497125048
-0.009286175299
-0.005428495026
-0.007905834019
-0.007053159128
-0.006074144176
-0.008068022654
-0.00399151194
-0.008142817955
-0.002003449662
-0.007022323258
-0.0005495730214
-0.004692116559
-0.00158335411
-0.0003284662546
0.00209435923
-0.001096641359
0.004914273154
-0.002140876251
0.006624103968
-0.003344188869
0.007493499771
-0.004627652886
0.007746256867
-0.005937197749
0.007532299826
-0.00723022416
0.00693566256
-0.008464350617
0.005991077188
-0.009589009675
0.004704544309
-0.01053986402
0.0030739402
-0.01123587706
0.001108574281
-0.01157999562
-0.001151187677
-0.01146453901
-0.003612581695
-0.01078526
-0.006107774075
-0.009470867405
-0.008367551763
-0.007533544874
-0.01000534519
-0.005141066264
-0.01053529649
-0.002684927202
-0.009478462344
-0.0007706322565
-0.00660641153
-0.002353986195
-0.0003200598463
0.002414419003
-0.001066067071
0.005660280513
-0.002077928524
0.007635965278
-0.003241696729
0.008657268086
-0.00448445934
0.008989019471
-0.005760760713
0.008808601104
-0.007038757699
0.008213659465
-0.008288430145
0.007240749586
-0.009472334655
0.005888448789
-0.01053843869
0.004140044196
-0.01141434361
0.001984479197
-0.01200253074
-0.000563000575
-0.01218095818
-0.003434154302
-0.01180633201
-0.006482400323
-0.01073909249
-0.009434791346
-0.008897137551
-0.01184730012
-0.006356419376
-0.01307601458
-0.003489478656
-0.01234540315
-0.001059744929
-0.009036145231
-0.00341373096
-0.0003090909265
0.002723509849
-0.001010823438
0.006362013237
-0.00194477857
0.008569920303
-0.002999922132
0.009712411802
-0.004112143868
0.01010124124
-0.005248185645
0.009944642812
-0.006391117515
0.009356591276
-0.007528674227
0.00837830628
-0.008644098986
0.007003873557
-0.009708374281
0.005204319445
-0.01067237976
0.002948484688
-0.01145613431
0.0002207539366
-0.01194513239
-0.002945156293
-0.01197585331
-0.006451679516
-0.01134852084
-0.01006212394
-0.009867771911
-0.01332804907
-0.007454936806
-0.0154888496
-0.004358210925
-0.01544212915
-0.001422834568
-0.01197152147
-0.004836565527
-0.0003120971865
0.003035606968
-0.0009645536013
0.007014469941
-0.001783765531
0.009389132181
-0.002660543308
0.01058918977
-0.0035447358
0.01098543382
-0.004421079568
0.01082098654
-0.005292625568
0.01022813722
-0.00616960063
0.009255281332
-0.007061352758
0.007895625767
-0.00796950033
0.006112466969
-0.00887937401
0.003858358455
-0.009750028839
0.001091408802
-0.01049283293
-0.002202352244
-0.01095968736
-0.005984825222
-0.01092160782
-0.0101002037
-0.01008115435
-0.01416850265
-0.008163990796
-0.01740601309
-0.005167864187
-0.01843825583
-0.001853061422
-0.01528632395
-0.00668962706
-0.0003596854301
0.003395292361
-0.0009864329597
0.007641217813
-0.001669149342
0.01007184857
-0.002301559688
0.01122160026
-0.002858540841
0.01154241508
-0.003353079234
0.01131552491
-0.003815212757
0.01069027066
-0.004281837108
0.00972190563
-0.004790707032
0.008404495898
-0.005376349224
0.006698109232
-0.006063427301
0.004545436628
-0.006856606629
0.001884588208
-0.007721080049
-0.001337878785
-0.008556422278
-0.00514948302
-0.009156674858
-0.009499951267
-0.009173810692
-0.01415136699
-0.008146754209
-0.01843306969
-0.005718158132
-0.02086685214
-0.002319001129
-0.0186854807
-0.009008628526
-0.000505615348
0.003900907701
-0.001167298815
0.008302901618
-0.001703671224
0.01060822108
-0.002023309817
0.01154123889
-0.002148900599
0.01166800593
-0.002138540426
0.01130516473
-0.002058494591
0.01061022478
-0.001976053414
0.009639464388
-0.001956312217
0.008384754619
-0.002063649443
0.006805446623
-0.0023584625
0.004840249849
-0.002891270742
0.002417396533
-0.003689731569
-0.000539417928
-0.004729349253
-0.004109865262
-0.00588592304
-0.008343377395
-0.006847414939
-0.01318987511
-0.007043136249
-0.01823734847
-0.005729253085
-0.02218073548
-0.002742548642
-0.02167218462
-0.01175117747
-0.0008362496027
0.00473715731
-0.001621721237
0.009088373491
-0.001982159075
0.01096865915
-0.001885146384
0.0114442262
-0.001444366609
0.01122722616
-0.0007876296179
0.01064842776
-2.876110222e-05
0.00985135619
0.0007355838572
0.008875119442
0.001413751347
0.007706587098
0.001918727669
0.006300470415
0.002162886673
0.004596090987
0.002058504414
0.002521778857
0.001518208084
8.78321878e-07
0.0004875547546
-0.003079212043
-0.00103355942
-0.006822263142
-0.002868191693
-0.01135524267
-0.004488364913
-0.01661717506
-0.004826262964
-0.02184283722
-0.0029490004
-0.02354944725
-0.01470017773
-0.001470002074
0.006207159417
-0.002394385243
0.01001275675
-0.002401492658
0.01097576687
-0.001645985195
0.01068871886
-0.0004054327849
0.009986673758
0.001097114667
0.009145880383
0.002698096899
0.008250373848
0.004272220935
0.007300995289
0.005714329595
0.00626447833
0.006923734164
0.005091065795
0.007796390014
0.003723435212
0.008219435648
0.002098733449
0.00807000266
0.000150311636
0.007217725061
-0.002226934239
0.005545769439
-0.005150307667
0.003042387672
-0.008851860737
5.855021984e-05
-0.01363333761
-0.002459653382
-0.01932463322
-0.002606033703
-0.02340306694
-0.01730621116
-0.002367249409
0.008574408941
-0.002971784689
0.01061729209
-0.001940848039
0.009944830275
5.099067533e-05
0.008696880226
0.002492978278
0.007544686205
0.005088108845
0.006550749638
0.007660170177
0.005678312549
0.01009099203
0.004870173531
0.0122854242
0.004070046231
0.01415053919
0.003225950794
0.01558436867
0.002289605717
0.01646861176
0.001214490495
0.01665480056
-3.587691117e-05
0.01599259062
-0.001564724089
0.01427741249
-0.003435129559
0.01131101299
-0.005885461004
0.007038220948
-0.009360545709
0.002190906535
-0.01447731879
-0.001031985658
-0.02018017479
-0.01833819684
-0.002149176088
0.01072358517
-7.201602069e-05
0.008540131928
0.003737292609
0.006135521629
0.007707587072
0.004726585859
0.01154058172
0.003711691794
0.01511089587
0.002980435517
0.01836154624
0.002427662206
0.02125959467
0.001972125156
0.02376881742
0.001560823568
0.02583741006
0.001157358209
0.02739200188
0.0007350137639
0.02833159485
0.0002748973795
0.02854987916
-0.0002541613125
0.0278682442
-0.0008830891859
0.02608547205
-0.001652357263
0.02289850738
-0.002698496783
0.01789962437
-0.004361662569
0.01076205887
-0.007339753036
0.00291007935
-0.01232819509
-0.01542811752
0.01072358528
0.01926371736
0.02539923914
0.03012582502
0.03383751688
0.03681795242
0.03924561464
0.0412177398
0.04277856338
0.04393592168
0.04467093556
0.04494583275
0.04469167124
0.04380858186
0.04215622493
0.03945772812
0.03509606548
0.02775631254
0.01542811749
)
;

boundaryField
{
    movingWall
    {
        type            calculated;
        value           uniform 0;
    }
    fixedWalls
    {
        type            calculated;
        value           uniform 0;
    }
    frontAndBack
    {
        type            empty;
    }
}


// ************************************************************************* //
