/*--------------------------------*- C++ -*----------------------------------*\
  =========                 |
  \\      /  F ield         | OpenFOAM: The Open Source CFD Toolbox
   \\    /   O peration     | Website:  https://openfoam.org
    \\  /    A nd           | Version:  13
     \\/     M anipulation  |
\*---------------------------------------------------------------------------*/
FoamFile
{
    format      ascii;
    class       volVectorField;
    location    "12";
    object      U;
}
// * * * * * * * * * * * * * * * * * * * * * * * * * * * * * * * * * * * * * //

dimensions      [0 1 -1 0 0 0 0];

internalField   nonuniform List<vector> 
400
(
(9.448360026e-06 -3.519550937e-05 0)
(-0.0006625575643 0.0004104879652 -1.518089184e-23)
(-0.002164305333 0.0009109808044 0)
(-0.00400424747 0.00129792219 0)
(-0.005904816605 0.001517105468 6.535993852e-25)
(-0.007674633096 0.001551391433 4.122303657e-24)
(-0.009179947694 0.001407093209 -6.261903912e-24)
(-0.01032114103 0.001107282696 8.729964666e-24)
(-0.01101910141 0.0006890178086 -2.201185234e-25)
(-0.01121417136 0.0002018115051 -4.162776721e-24)
(-0.01087111181 -0.000296176475 5.999716435e-24)
(-0.009990457295 -0.0007396020591 -6.099641239e-23)
(-0.008621331772 -0.001065923769 -6.749876738e-23)
(-0.00686948868 -0.001224149989 -8.005697659e-23)
(-0.004901197285 -0.001186780553 4.730233423e-24)
(-0.002936771739 -0.0009606762574 -4.320168256e-24)
(-0.001226598431 -0.0005949027305 -2.134714065e-22)
(-4.203766962e-05 -0.0001771670399 0)
(0.0005017604468 0.0001632690417 2.181032061e-25)
(0.0002185657604 0.0003001846336 -1.140063028e-23)
(-0.0002603093394 0.0008235508284 1.362319622e-25)
(-0.002670161668 0.003345502694 1.527605557e-23)
(-0.006818221659 0.005534641472 1.507517584e-25)
(-0.01179583602 0.006918573412 -8.115333393e-25)
(-0.01691050632 0.007457583845 1.099950453e-24)
(-0.02169022908 0.007203884176 1.208894556e-23)
(-0.02577851123 0.00624804087 2.397074361e-24)
(-0.02890388637 0.004704833972 -8.453522885e-24)
(-0.03085559648 0.002717094376 1.081155885e-23)
(-0.03148229078 0.0004625777107 4.703624868e-24)
(-0.03069918167 -0.001845588727 -6.533054446e-24)
(-0.02851309355 -0.003962889273 2.849203928e-24)
(-0.02505172582 -0.005636302918 3.988393826e-23)
(-0.02057833345 -0.006634919308 -2.036184367e-24)
(-0.01550011018 -0.006792749754 3.930505366e-24)
(-0.0103500053 -0.006056638056 -1.04312971e-22)
(-0.005733232759 -0.004531069506 1.036132908e-22)
(-0.002253610469 -0.002516406359 -5.291727818e-25)
(-0.0002002158135 -0.0005265090526 5.425199196e-25)
(8.070717978e-05 0.0005908250664 0)
(-0.0004122561069 0.002900824459 -2.851780727e-25)
(-0.004581072808 0.008688698358 1.648845981e-23)
(-0.01120878305 0.01306132812 -8.215166913e-24)
(-0.01905216854 0.0155781735 -1.941427679e-25)
(-0.02708818161 0.01631062571 1.907264098e-25)
(-0.03463378357 0.01544556633 3.432602837e-26)
(-0.0411528555 0.01320291549 -2.194014355e-24)
(-0.04622604211 0.009820074084 -5.233442415e-25)
(-0.04952224906 0.005569183254 -1.132138151e-23)
(-0.05079735688 0.0007796196768 0)
(-0.04990576899 -0.004144789296 0)
(-0.04683475768 -0.008741255275 2.773224533e-23)
(-0.04174580126 -0.01250605878 2.921439612e-23)
(-0.0350002297 -0.01495380676 -1.73500231e-24)
(-0.02717552812 -0.01569736349 5.174661249e-23)
(-0.01904508816 -0.01454784694 1.008948489e-22)
(-0.01150563706 -0.01162104784 4.77714426e-23)
(-0.005453240504 -0.007432881865 6.848861667e-25)
(-0.00145665739 -0.002958506601 -3.620712292e-26)
(-9.082320632e-05 0.0001978984583 0)
(-0.000493706712 0.005964516221 -4.117028257e-23)
(-0.00630527338 0.01614250875 -1.638584936e-23)
(-0.01530293282 0.02322878664 8.138748073e-24)
(-0.0258936355 0.02706160105 0)
(-0.03675180178 0.02794079508 0)
(-0.04702195558 0.02624938559 0)
(-0.05602339973 0.02236815935 -8.283217505e-26)
(-0.06321074733 0.01667219651 -1.316785528e-24)
(-0.06813664639 0.00957093481 0)
(-0.07044394723 0.001555027905 1.903098356e-24)
(-0.06989231668 -0.006767703653 2.97893164e-25)
(-0.06639537108 -0.0146763371 -2.987273252e-25)
(-0.06007227467 -0.02135793719 0)
(-0.05130645006 -0.02598765739 4.455314493e-23)
(-0.04078065725 -0.02785243691 -5.001540702e-23)
(-0.02947575254 -0.02652189615 -3.171591807e-23)
(-0.01859976423 -0.02204639977 -4.776036391e-23)
(-0.00942834762 -0.015142136 7.686294005e-25)
(-0.002963756392 -0.007297144294 8.727578682e-23)
(-0.0002302096722 -0.0008934400147 0)
(-0.000522353702 0.009952015064 4.137126613e-23)
(-0.007862757651 0.02558058423 4.810218327e-25)
(-0.01911033159 0.03591193216 -4.70037414e-25)
(-0.03234994456 0.04127509837 0)
(-0.04599020125 0.04232352611 7.516366262e-25)
(-0.05903339854 0.03969754953 -7.412158857e-25)
(-0.07068398042 0.03395832666 3.50382972e-23)
(-0.08028828848 0.02561382346 1.659926158e-23)
(-0.0872804575 0.01519423161 5.569753735e-24)
(-0.09116853181 0.00333430199 -1.905315783e-24)
(-0.09156121118 -0.009164123194 0)
(-0.08821679245 -0.02130211187 4.8480906e-25)
(-0.08111926638 -0.03190509459 1.195827822e-23)
(-0.07057233093 -0.03970982441 -4.693295514e-23)
(-0.05728225357 -0.04353242594 2.170417819e-24)
(-0.04240752527 -0.04252865118 5.062145719e-23)
(-0.02752185305 -0.03652542331 -5.22815115e-25)
(-0.01443508731 -0.02635213755 0)
(-0.004823563484 -0.0140310422 5.334457792e-23)
(-0.0003602138166 -0.002861024806 -2.436476678e-22)
(-0.0005189668977 0.01478347941 9.811614671e-23)
(-0.009244304353 0.0368550081 -4.916150449e-25)
(-0.02256325096 0.05097595703 0)
(-0.03830268598 0.05813943218 0)
(-0.05465408626 0.05947336218 -8.578455123e-23)
(-0.0705131493 0.05593345383 -8.299213955e-23)
(-0.08500138558 0.04827115552 -3.881041541e-23)
(-0.09737742467 0.03710447096 -1.399014738e-23)
(-0.1069584176 0.02304198678 -4.772644375e-24)
(-0.1130931859 0.006813655675 -7.661730502e-24)
(-0.115185196 -0.01062021176 6.019880728e-24)
(-0.112750756 -0.02799871127 7.700522505e-24)
(-0.1055225941 -0.0437481277 -1.836082242e-23)
(-0.09359283956 -0.05605961456 -2.449687049e-25)
(-0.07756885631 -0.06308776364 0)
(-0.05871623932 -0.06331078899 -2.034730013e-23)
(-0.03900869025 -0.05604922459 1.316205632e-25)
(-0.0209674647 -0.0420451201 0)
(-0.007258847703 -0.02384651369 -1.403021109e-22)
(-0.0005154950712 -0.00591514918 5.784207851e-22)
(-0.0004931137199 0.02035322281 -9.744537907e-23)
(-0.01039629051 0.04974887825 2.804894802e-22)
(-0.02550795184 0.06818220355 1.510483176e-22)
(-0.04348493613 0.07746112652 3.565466609e-24)
(-0.06235903492 0.07929504811 -7.21328841e-23)
(-0.08096416288 0.07500600085 8.82885956e-23)
(-0.09837852058 0.06553718196 -3.501447642e-24)
(-0.1138040554 0.05157919442 -1.66488855e-24)
(-0.1264574192 0.03375412506 2.424065273e-24)
(-0.1355225253 0.01280735217 6.904821025e-24)
(-0.140162047 -0.01022146616 -5.948405348e-24)
(-0.1395763548 -0.03386524468 -8.546916732e-24)
(-0.133129343 -0.0561542996 -3.203274114e-23)
(-0.1205424393 -0.07464858752 -2.824495207e-23)
(-0.1021407793 -0.08662851937 3.926066202e-25)
(-0.07913649262 -0.08953885655 0)
(-0.05384569883 -0.08174070345 0)
(-0.02964034943 -0.06348911692 -2.702878418e-24)
(-0.01057893065 -0.03773983067 2.762820764e-24)
(-0.0007270704461 -0.01045309549 1.013040817e-22)
(-0.0004453316686 0.02650748572 0)
(-0.01123127748 0.06394110501 1.977409006e-22)
(-0.02772456007 0.08714801174 8.85164757e-23)
(-0.04750587831 0.09887468647 0)
(-0.06851238945 0.1015012454 1.544435882e-22)
(-0.08956658055 0.09676067328 0)
(-0.1097514036 0.08578636118 -1.398094019e-22)
(-0.1282586244 0.06929819561 6.354532914e-24)
(-0.1442463537 0.04785358339 0)
(-0.1567642947 0.02210870458 0)
(-0.1647429148 -0.006936516741 -1.316711219e-24)
(-0.1670365038 -0.03771511388 -8.732958176e-25)
(-0.1625538404 -0.06794220603 1.415044564e-22)
(-0.1504849686 -0.09453024424 -4.624909532e-23)
(-0.130631698 -0.1137098406 -2.337983408e-24)
(-0.1038649682 -0.1214860291 1.325431902e-24)
(-0.07260735057 -0.1146140108 -1.346339416e-24)
(-0.04107142099 -0.09213953918 0)
(-0.01514582053 -0.057020425 3.079843013e-24)
(-0.001034416575 -0.01704924939 -9.797820944e-22)
(-0.0003760991987 0.03303843335 0)
(-0.01166232457 0.07898817628 -1.11723408e-22)
(-0.02897991875 0.1073170827 -6.121123874e-22)
(-0.04992313968 0.1217890632 -3.708289659e-22)
(-0.07239897924 0.1255263613 0)
(-0.09526895909 0.120715688 4.051567908e-22)
(-0.1176745758 0.1086856119 1.234153311e-22)
(-0.1388599283 0.0901505091 -5.451826782e-24)
(-0.1579977714 0.06552936767 5.424843556e-24)
(-0.1740837958 0.03527831213 0)
(-0.1858846399 0.0002129044616 2.840278621e-23)
(-0.1919645176 -0.03817907873 4.538606747e-24)
(-0.190774332 -0.07746077843 -1.031632207e-22)
(-0.1808551889 -0.11401457 7.584635016e-23)
(-0.1612317626 -0.1429788854 -2.319084104e-22)
(-0.132024333 -0.1585709884 0)
(-0.09527519871 -0.1551509395 0)
(-0.05571047182 -0.1293937158 0)
(-0.02135411098 -0.0832662445 0)
(-0.001488673504 -0.02649564159 5.400424589e-22)
(-0.0002936527751 0.03969766284 0)
(-0.01164909882 0.09434320896 -3.454743471e-22)
(-0.02911214415 0.127962116 8.833690309e-22)
(-0.05036366231 0.1453615729 3.57179052e-22)
(-0.07333568343 0.1504635713 0)
(-0.0969759749 0.1459556437 -3.799157795e-22)
(-0.1205401312 0.1333836186 -3.118858213e-23)
(-0.1433983043 0.1134466037 3.275057889e-22)
(-0.1648372109 0.08637831557 1.737096705e-22)
(-0.1839260798 0.05234323156 -3.984122915e-23)
(-0.1994280002 0.01182511252 1.639630754e-23)
(-0.2097626609 -0.03398481394 -8.063001002e-24)
(-0.2130339974 -0.08276150624 3.299432618e-22)
(-0.2071565454 -0.1306549747 0)
(-0.1901977275 -0.1719115051 2.320204296e-22)
(-0.1610757719 -0.1988475654 5.473857838e-24)
(-0.1207181031 -0.202679733 -5.555489665e-24)
(-0.07355273308 -0.1761154402 1.453951011e-22)
(-0.02958508174 -0.1181577449 -5.156975902e-24)
(-0.002166266193 -0.03982447344 0)
(-0.0002224880562 0.04624226681 0)
(-0.01125780405 0.1094207912 0)
(-0.02814162942 0.148233594 -4.96794827e-22)
(-0.04868582449 0.1685174922 -1.860129972e-23)
(-0.07088892452 0.1750516575 2.010980302e-23)
(-0.0938334115 0.1710823884 -1.98723622e-23)
(-0.1169461159 0.1584187379 -2.280160407e-23)
(-0.1398014081 0.1377718586 -2.976648489e-22)
(-0.161912959 0.109190288 6.647301385e-23)
(-0.1825827856 0.07250371114 4.427754404e-23)
(-0.2007786687 0.02775223998 -4.488489219e-23)
(-0.2150231001 -0.02437305483 0)
(-0.2233387598 -0.08200753954 -7.535512527e-23)
(-0.2232163171 -0.1415370973 0)
(-0.2117842177 -0.1968357018 -3.666237622e-22)
(-0.1864334543 -0.2386449826 5.116765883e-22)
(-0.1461428933 -0.2546665619 0)
(-0.09370903298 -0.2318924525 -1.402298965e-22)
(-0.04009573631 -0.1631138417 1.842837229e-22)
(-0.00318695719 -0.05830909814 -3.317218528e-22)
(-0.0002161660833 0.05252175324 0)
(-0.01073630158 0.1237159386 9.09768294e-22)
(-0.02639857131 0.1672607888 -2.416719376e-23)
(-0.04515930378 0.1900241055 9.103218237e-22)
(-0.0651166985 0.1977303387 -2.484632192e-23)
(-0.08555672227 0.1942587184 2.802274267e-23)
(-0.106145377 0.1817483082 -2.776694052e-23)
(-0.1267394629 0.1609852374 -1.637657139e-23)
(-0.1471848556 0.1318865167 -5.187269516e-22)
(-0.1671680762 0.09397396405 -8.780928707e-24)
(-0.1860779731 0.04681093187 9.5260989e-24)
(-0.2028308143 -0.009557231328 3.27405938e-22)
(-0.2157396748 -0.07409230641 -5.741863898e-22)
(-0.2222765146 -0.1439460442 0)
(-0.2189570579 -0.2134481879 8.746690286e-22)
(-0.2016619123 -0.2726709662 -4.820415713e-22)
(-0.1667978363 -0.3062172943 -1.533960188e-23)
(-0.1139059872 -0.2941211853 0)
(-0.05279328845 -0.2186431287 -1.79706804e-22)
(-0.004735681719 -0.08340758666 3.267915074e-22)
(-0.0003816799732 0.05862031539 1.536920171e-23)
(-0.01061292316 0.1369800663 -8.682915664e-22)
(-0.02465432338 0.1842988167 -1.147585409e-21)
(-0.04062156993 0.2086115574 -8.54444435e-22)
(-0.0567603736 0.2167616317 0)
(-0.07268860742 0.2133528769 3.474926174e-23)
(-0.08841191813 0.2009229107 -7.212347978e-23)
(-0.1041506368 0.1804077966 5.799878657e-23)
(-0.120160811 0.151679681 2.982732561e-22)
(-0.1366115809 0.1140409769 -1.11519336e-23)
(-0.1534622409 0.06663371417 0)
(-0.1703083253 0.008825318349 -3.560878669e-22)
(-0.1860929043 -0.05934190938 7.440404035e-22)
(-0.1987745032 -0.1363349835 8.755474556e-22)
(-0.2049447832 -0.2178885841 -5.225401319e-22)
(-0.1995074002 -0.2948459282 5.105119757e-22)
(-0.1762771807 -0.3502166731 1.045948884e-23)
(-0.1301425476 -0.3572478414 -1.06274563e-23)
(-0.06685680254 -0.283383271 -9.016174302e-23)
(-0.007073133768 -0.1165898055 0)
(-0.0009287350725 0.0650766825 -1.896310661e-23)
(-0.01183832307 0.1494271982 -1.317632543e-21)
(-0.0242393445 0.1988593228 1.085323295e-21)
(-0.03655054384 0.223065546 6.686397612e-22)
(-0.04727782009 0.2303428009 5.96886e-22)
(-0.05661942984 0.2261144235 6.589124495e-22)
(-0.06508223103 0.21334535 -4.415516592e-23)
(-0.07334370377 0.193162081 -3.43080492e-22)
(-0.08211343389 0.1654648053 2.133354292e-22)
(-0.09206634024 0.1294490887 0)
(-0.1037720128 0.08396539836 0)
(-0.1175685358 0.02781789184 2.637257486e-22)
(-0.1333164389 -0.03988993139 8.254062804e-23)
(-0.1499877252 -0.1192255966 -2.783060562e-22)
(-0.1650424413 -0.2081064865 -5.372190318e-23)
(-0.1735006311 -0.2998321701 1.312804597e-22)
(-0.1675074232 -0.3784039422 -3.35890964e-22)
(-0.1367643475 -0.4126855764 -1.937196869e-23)
(-0.0802321548 -0.3529806057 9.003852208e-23)
(-0.01050456947 -0.1590011407 -6.083054283e-22)
(-0.002279733165 0.07326545715 0)
(-0.01599623309 0.1619996333 2.131791899e-21)
(-0.0270799408 0.2108204613 0)
(-0.03489684426 0.2322722694 -1.343155998e-21)
(-0.03848944434 0.2366719779 6.241604379e-23)
(-0.0390790085 0.2303093781 -6.141757085e-22)
(-0.03790912469 0.2164995559 -4.720994664e-22)
(-0.03621895223 0.1965113223 8.233471958e-22)
(-0.03517848708 0.1702625258 -1.869031686e-22)
(-0.03591146613 0.1369290615 0)
(-0.03951686597 0.09522296844 0)
(-0.04700694835 0.04361508009 2.441090974e-23)
(-0.05919704065 -0.01948973408 -5.970997473e-22)
(-0.07633524358 -0.09555521223 -4.284074647e-22)
(-0.09750113637 -0.1849249987 4.621849405e-22)
(-0.1192100642 -0.2847386494 -6.443029119e-22)
(-0.1339105121 -0.383192766 8.921854156e-23)
(-0.1269117587 -0.449755616 3.296447227e-23)
(-0.08912114592 -0.4191835849 5.675494264e-22)
(-0.0152765382 -0.2108007692 6.071591047e-22)
(-0.00519746517 0.08586786326 0)
(-0.02545336554 0.1762063276 1.470278397e-22)
(-0.03529083302 0.2199026162 -4.892543655e-23)
(-0.03713252843 0.2346396702 7.599449615e-22)
(-0.03117206558 0.233482587 -6.962320322e-22)
(-0.02036496079 0.22341317 4.716400804e-23)
(-0.006966047834 0.2078051932 -1.016805443e-22)
(0.007124364015 0.1878248942 -3.364011098e-22)
(0.02031396777 0.1633487779 2.049990471e-22)
(0.0311573637 0.1335139173 0)
(0.03816936867 0.09701142229 0)
(0.03984565593 0.05222423857 -2.887538472e-22)
(0.03454846972 -0.00273505285 0)
(0.02085173343 -0.07006532447 -5.49874209e-22)
(-0.002259929757 -0.152101651 -1.411268868e-23)
(-0.03394093203 -0.2501746814 2.551378218e-23)
(-0.06976180075 -0.3595282553 2.182604259e-22)
(-0.09271653748 -0.4571507683 4.85467158e-24)
(-0.08735802354 -0.4693728924 -5.806070916e-22)
(-0.02104996089 -0.269610215 0)
(-0.0111251277 0.1085871624 0)
(-0.04265105106 0.1945154579 -8.809404417e-22)
(-0.04835612761 0.2254056587 -5.395443857e-22)
(-0.03986364803 0.2276527299 4.530669879e-22)
(-0.01970352477 0.2176314272 -1.728917343e-24)
(0.006521686026 0.2022757194 -4.541613661e-23)
(0.03538111681 0.1843480375 5.664296155e-22)
(0.06444046498 0.1644730449 -2.750662936e-23)
(0.09185562548 0.1422666628 -2.056659364e-22)
(0.116005727 0.1167604596 3.125795488e-23)
(0.1352388053 0.08668801289 -3.410463604e-23)
(0.1477621549 0.05054628411 -3.677755123e-23)
(0.1514580244 0.006563222712 3.196629343e-22)
(0.1440136603 -0.0475673874 6.105220317e-22)
(0.1227164679 -0.114966028 -5.092319148e-22)
(0.08567671204 -0.2001521719 -1.618346336e-22)
(0.03141036962 -0.3065741608 1.524690121e-22)
(-0.02403689981 -0.4237759922 7.292737031e-23)
(-0.06509023894 -0.4869259723 1.912340848e-21)
(-0.02512274219 -0.3289706403 2.953921447e-21)
(-0.02004090612 0.1461269917 -4.380563142e-23)
(-0.06423870618 0.2112615638 4.407676973e-23)
(-0.0509417291 0.2175490167 9.979978238e-22)
(-0.01978838247 0.2011633959 -7.75468833e-24)
(0.02347414488 0.1805444631 0)
(0.07066392198 0.1603406943 4.346554715e-23)
(0.1180351307 0.1413652421 -2.263012139e-22)
(0.1633413534 0.1231397745 -8.981650732e-23)
(0.2050522984 0.1047571598 3.660845845e-23)
(0.2418144829 0.08513749859 -1.692701977e-23)
(0.2721447999 0.06312797794 3.414498654e-23)
(0.2942934694 0.03749769358 -6.569601733e-23)
(0.305860322 0.006803098841 -9.27067009e-23)
(0.3042688326 -0.03062127266 1.515059433e-22)
(0.2858197408 -0.07765029832 0)
(0.2466000741 -0.1397831742 1.5086423e-22)
(0.1807218478 -0.2265648875 2.557834826e-22)
(0.09576750787 -0.3443061974 0)
(-0.006838498529 -0.4551335733 -3.673790409e-21)
(-0.01924721271 -0.3776730794 -2.891568709e-21)
(-0.02590275792 0.2277399514 -9.508820672e-22)
(-0.03995659009 0.2238610963 -1.387215614e-22)
(0.03653174654 0.1810240519 -2.33030559e-22)
(0.1089007743 0.1449977945 -1.190203024e-22)
(0.1814112248 0.1170876046 -4.290787184e-23)
(0.2485321869 0.09611256921 9.754953843e-23)
(0.3094089537 0.07988184347 -1.402815343e-22)
(0.3638885337 0.06647183117 1.290738003e-22)
(0.4118366801 0.05445517534 -8.573948115e-23)
(0.4528347177 0.0427331051 1.131069892e-25)
(0.4860448439 0.03039850124 1.521662064e-23)
(0.5100870693 0.01663939288 7.969235292e-23)
(0.5231164636 0.000654177789 -1.806717999e-22)
(0.5227674446 -0.0185189048 -1.615162437e-22)
(0.50492896 -0.04277164193 -4.261780466e-23)
(0.4656579573 -0.07627353056 0)
(0.3951147804 -0.1285906894 -1.841233903e-22)
(0.2914902465 -0.220841068 8.143075807e-22)
(0.119675054 -0.3524967671 1.630732905e-21)
(0.02668766022 -0.3775392571 2.172203787e-21)
(0.2143068886 0.1347618664 9.859046232e-22)
(0.2776855233 0.09872705317 0)
(0.4317199689 0.05811447688 -2.591567297e-22)
(0.5305003391 0.03845925526 -1.740185368e-22)
(0.601650875 0.0262202793 0)
(0.6569859651 0.01830162675 -5.993429548e-23)
(0.7013038275 0.01312074789 6.351042719e-23)
(0.7373235371 0.009533754808 -1.789991743e-23)
(0.7666229566 0.006805396097 2.869877924e-23)
(0.789896769 0.004475068978 2.302623106e-23)
(0.8071719963 0.002239202278 0)
(0.818031353 -0.0001274380693 -2.862281501e-23)
(0.8214852726 -0.002699286076 0)
(0.8161438667 -0.005694322659 2.733350412e-23)
(0.7990923006 -0.009600561003 1.425376978e-23)
(0.7679940856 -0.01499949606 -5.792744707e-23)
(0.7106651401 -0.02502980818 -2.532499598e-22)
(0.6235244899 -0.04204820952 -6.913648443e-22)
(0.4230083887 -0.09183534061 0)
(0.2705657672 -0.1524047514 -2.11904264e-21)
)
;

boundaryField
{
    movingWall
    {
        type            fixedValue;
        value           uniform (1 0 0);
    }
    fixedWalls
    {
        type            fixedValue;
        value           uniform (0 0 0);
    }
    frontAndBack
    {
        type            empty;
    }
}


// ************************************************************************* //
