/*--------------------------------*- C++ -*----------------------------------*\
  =========                 |
  \\      /  F ield         | OpenFOAM: The Open Source CFD Toolbox
   \\    /   O peration     | Website:  https://openfoam.org
    \\  /    A nd           | Version:  13
     \\/     M anipulation  |
\*---------------------------------------------------------------------------*/
FoamFile
{
    format      ascii;
    class       volVectorField;
    location    "12";
    object      U_0;
}
// * * * * * * * * * * * * * * * * * * * * * * * * * * * * * * * * * * * * * //

dimensions      [0 1 -1 0 0 0 0];

internalField   nonuniform List<vector> 
400
(
(0.0001047599404 -0.0001066584314 0)
(-0.0002291092738 7.830498197e-05 0)
(-0.001391406079 0.0002660462822 0)
(-0.003194729797 0.0003867516922 0)
(-0.005363269653 0.0004475783871 0)
(-0.007655318539 0.0004631247158 0)
(-0.009875218234 0.0004421856509 0)
(-0.01185235828 0.00038694815 0)
(-0.01342472531 0.0002959253963 0)
(-0.0144352762 0.0001682240267 0)
(-0.0147431827 7.878588432e-06 0)
(-0.01424869519 -0.0001728231741 0)
(-0.0129264698 -0.0003517472472 0)
(-0.01085840959 -0.0004984955911 0)
(-0.008254063173 -0.0005796081438 0)
(-0.005445682035 -0.0005671622668 0)
(-0.002848945249 -0.0004487567302 0)
(-0.0008862056776 -0.0002364519566 0)
(0.0001382715649 2.054353347e-05 0)
(0.0001939762558 0.000189916959 0)
(-8.492267467e-05 0.0002249309238 0)
(-0.001697648702 0.001627391734 0)
(-0.005110945542 0.003023270757 0)
(-0.009858394282 0.003956962773 0)
(-0.01535918736 0.004412218638 0)
(-0.02108536459 0.004455376674 0)
(-0.02657644408 0.004143702556 0)
(-0.03141516079 0.003506240432 0)
(-0.03520796774 0.002556033379 0)
(-0.03758703357 0.001314722826 0)
(-0.03823912023 -0.0001607669817 0)
(-0.03695867701 -0.001757465942 0)
(-0.03371527335 -0.003298549983 0)
(-0.02871729149 -0.00455585224 0)
(-0.02244798617 -0.005286490998 0)
(-0.01564896482 -0.005292128638 0)
(-0.009231560662 -0.004490475017 0)
(-0.004108331423 -0.002985434095 0)
(-0.0009546943863 -0.001138468502 0)
(8.151273489e-05 0.0001797134357 0)
(-0.0003113193652 0.001477080927 0)
(-0.003430459235 0.005140779812 0)
(-0.009051598492 0.008334740014 0)
(-0.01639850824 0.01043954398 0)
(-0.02465917616 0.01143175413 0)
(-0.03312719014 0.01142866975 0)
(-0.04117431191 0.01053981807 0)
(-0.04822117877 0.00883110737 0)
(-0.05372121171 0.006347969312 0)
(-0.05716964377 0.003165020996 0)
(-0.05814230615 -0.0005595559965 0)
(-0.05636195661 -0.004542185671 0)
(-0.05178129065 -0.008360734559 0)
(-0.04466381321 -0.01148360291 0)
(-0.03563586407 -0.01335162578 0)
(-0.02567729382 -0.01351080527 0)
(-0.01602089462 -0.01177540551 0)
(-0.007944099238 -0.008383789516 0)
(-0.002485684209 -0.004114641448 0)
(-8.76366063e-05 -0.0005868739315 0)
(-0.0005103439292 0.003629825235 0)
(-0.00504271607 0.01055118399 0)
(-0.01274673652 0.01601737321 0)
(-0.02248013422 0.01950055261 0)
(-0.0332018823 0.02105779457 0)
(-0.04406998036 0.02088919449 0)
(-0.05434940204 0.0191685022 0)
(-0.06335993839 0.01600507445 0)
(-0.07045335322 0.01148405563 0)
(-0.07502154602 0.005744512435 0)
(-0.07653741087 -0.0009352799066 0)
(-0.07462744037 -0.008070996643 0)
(-0.06916822031 -0.01494772933 0)
(-0.06039116966 -0.02066088453 0)
(-0.04896890361 -0.02424244638 0)
(-0.03604279393 -0.02487796186 0)
(-0.02314389306 -0.0221876123 0)
(-0.01196794841 -0.01650081744 0)
(-0.004030951547 -0.009025719881 0)
(-0.0002343121701 -0.002136762668 0)
(-0.0006816113511 0.006584658495 0)
(-0.006496632559 0.01769691686 0)
(-0.01613430188 0.02586110587 0)
(-0.02808635968 0.03087606969 0)
(-0.04109043216 0.03299611502 0)
(-0.05419521059 0.03255897093 0)
(-0.06660013613 0.02982230003 0)
(-0.07756772664 0.02494029348 0)
(-0.08638195975 0.01802980803 0)
(-0.09234512261 0.009281889392 0)
(-0.09481205847 -0.0009171395713 0)
(-0.09326363093 -0.01188565097 0)
(-0.08741753033 -0.02259796648 0)
(-0.07736788613 -0.03172043964 0)
(-0.06373054567 -0.03776926595 0)
(-0.04774568654 -0.03941521154 0)
(-0.03126313814 -0.03591614011 0)
(-0.01652380474 -0.02757296147 0)
(-0.005712229356 -0.01601047418 0)
(-0.000375669614 -0.004462876785 0)
(-0.0008305414175 0.01025429579 0)
(-0.007812193919 0.02642795162 0)
(-0.01923318406 0.03770521537 0)
(-0.03325252467 0.04440927294 0)
(-0.04840630059 0.04711250238 0)
(-0.06366130216 0.04635774647 0)
(-0.07818695061 0.04251275833 0)
(-0.09122494192 0.03577395649 0)
(-0.1020190842 0.02626705361 0)
(-0.109790748 0.01419790709 0)
(-0.11375709 1.654157519e-05 0)
(-0.1131982102 -0.01543696686 0)
(-0.107579796 -0.03083836721 0)
(-0.09673423554 -0.04438150894 0)
(-0.08108696078 -0.05393860655 0)
(-0.06187772126 -0.05744295509 0)
(-0.04127275046 -0.05351112258 0)
(-0.02220564347 -0.04218564823 0)
(-0.007804398918 -0.02546510932 0)
(-0.0005482144294 -0.007670208267 0)
(-0.0009598109433 0.01457271012 0)
(-0.009006927298 0.03660918803 0)
(-0.02205501886 0.05139970505 0)
(-0.03797868283 0.05996342313 0)
(-0.05513755204 0.06330947747 0)
(-0.07244820159 0.06225865343 0)
(-0.08908666523 0.0573183827 0)
(-0.1043115318 0.04872120181 0)
(-0.1173584297 0.036566403 0)
(-0.1273856971 0.02101553241 0)
(-0.1334668373 0.002506820193 0)
(-0.1346406249 -0.01803863386 0)
(-0.1300353813 -0.03905079126 0)
(-0.1190861324 -0.05823848239 0)
(-0.1018513826 -0.07270111876 0)
(-0.07939339204 -0.07935088005 0)
(-0.05410260954 -0.07574563103 0)
(-0.02971231087 -0.06125987544 0)
(-0.01065368351 -0.03811699289 0)
(-0.0007957294283 -0.01203200934 0)
(-0.001069138912 0.01948274578 0)
(-0.01008278107 0.04810274069 0)
(-0.02457769605 0.06677549614 0)
(-0.04219641713 0.07736800494 0)
(-0.06114491595 0.08144511009 0)
(-0.0803233636 0.08018278012 0)
(-0.09895390114 0.07426133978 0)
(-0.1163554803 0.06394290392 0)
(-0.131799621 0.04925843851 0)
(-0.1444208405 0.03025107197 0)
(-0.1531744989 0.007245656543 0)
(-0.1568557677 -0.01887330688 0)
(-0.1542054645 -0.04639729172 0)
(-0.1441392622 -0.07260033777 0)
(-0.1261391062 -0.09372633318 0)
(-0.1008116132 -0.1053635312 0)
(-0.07051853176 -0.1034486703 0)
(-0.03975843978 -0.08600068571 0)
(-0.01466134051 -0.05505494359 0)
(-0.001171594219 -0.01801501376 0)
(-0.001157739292 0.02492682051 0)
(-0.01103315251 0.06075021639 0)
(-0.02675282699 0.08361539599 0)
(-0.04577505045 0.09636996835 0)
(-0.06616655509 0.1012592265 0)
(-0.08684380997 0.09989902073 0)
(-0.1071165439 0.0931826658 0)
(-0.126414244 0.08140084971 0)
(-0.1441039822 0.06447728823 0)
(-0.1593649335 0.04226000318 0)
(-0.171106142 0.01484461205 0)
(-0.1779389407 -0.01707271367 0)
(-0.1782367046 -0.05181628017 0)
(-0.1703311302 -0.0863741011 0)
(-0.1529256583 -0.1161670323 0)
(-0.1258052037 -0.1352271856 0)
(-0.09083471812 -0.1372153301 0)
(-0.0529569945 -0.1177418812 0)
(-0.02028197317 -0.07772085587 0)
(-0.001746108498 -0.02630881827 0)
(-0.001229259515 0.03084675705 0)
(-0.01186431205 0.07436584157 0)
(-0.02853967298 0.1016315959 0)
(-0.04856289252 0.1165886737 0)
(-0.06986406329 0.1223019551 0)
(-0.0914064367 0.1209243819 0)
(-0.1126299147 0.1136136075 0)
(-0.1331299053 0.100700783 0)
(-0.1524428913 0.08197882101 0)
(-0.1698913131 0.05703886084 0)
(-0.1844618172 0.02563827244 0)
(-0.1947197799 -0.01188269384 0)
(-0.1987949982 -0.05411361883 0)
(-0.1944829527 -0.09802670847 0)
(-0.179588418 -0.1384441319 0)
(-0.1526911394 -0.1678190487 0)
(-0.114483488 -0.1769449222 0)
(-0.06959881285 -0.1576135004 0)
(-0.02800169251 -0.1078276308 0)
(-0.002617424219 -0.03786206629 0)
(-0.001300156543 0.0371999992 0)
(-0.01263324855 0.08875080081 0)
(-0.02996548325 0.1204575772 0)
(-0.05046215211 0.1374797979 0)
(-0.07190968361 0.1438701891 0)
(-0.09335177204 0.1424340621 0)
(-0.1144048825 0.1346585778 0)
(-0.1348890403 0.1209456732 0)
(-0.1545919125 0.1009611669 0)
(-0.1730978372 0.07401219284 0)
(-0.1896374012 0.0394434321 0)
(-0.2029451317 -0.002912460654 0)
(-0.2111486185 -0.05217895875 0)
(-0.2117141187 -0.1056936728 0)
(-0.201606569 -0.1581502694 0)
(-0.1779343648 -0.2007686762 0)
(-0.1394534993 -0.22122408 0)
(-0.0892601197 -0.205951765 0)
(-0.0382498423 -0.1471220562 0)
(-0.003925203079 -0.05391473455 0)
(-0.001413578656 0.04400389232 0)
(-0.01350725897 0.1037407203 0)
(-0.0312128497 0.1396614387 0)
(-0.05153103696 0.1583136509 0)
(-0.072102727 0.1649611294 0)
(-0.09210725952 0.1631984457 0)
(-0.1113984851 0.1549174398 0)
(-0.1300834002 0.1406380546 0)
(-0.1482802636 0.1199351784 0)
(-0.1659527838 0.0918540801 0)
(-0.1827541921 0.05531210887 0)
(-0.1978520876 0.009539661248 0)
(-0.2097034254 -0.04534837644 0)
(-0.2158252665 -0.1075144673 0)
(-0.2126703474 -0.1722244688 0)
(-0.1959032032 -0.2302918959 0)
(-0.1617398097 -0.2667091041 0)
(-0.1102221531 -0.2614343977 0)
(-0.05117296988 -0.1968642467 0)
(-0.005864157697 -0.07599536822 0)
(-0.001663148955 0.05142687711 0)
(-0.01485394528 0.1192971488 0)
(-0.03273031064 0.1587791608 0)
(-0.05209097631 0.1781636749 0)
(-0.07047574653 0.1842448771 0)
(-0.08731616538 0.1815604166 0)
(-0.1028008276 0.1724748683 0)
(-0.1173946766 0.1576753925 0)
(-0.1316126822 0.1367059682 0)
(-0.1458871008 0.1084223111 0)
(-0.1604368607 0.07137768128 0)
(-0.175089734 0.02420892261 0)
(-0.189003154 -0.03385862721 0)
(-0.2002655687 -0.1022216271 0)
(-0.2054208685 -0.1775354623 0)
(-0.1991782079 -0.2515010748 0)
(-0.1751030554 -0.307833219 0)
(-0.128828543 -0.3201077006 0)
(-0.06618286047 -0.2568854714 0)
(-0.008684426632 -0.1058087522 0)
(-0.002234914975 0.0599540124 0)
(-0.01737269386 0.1356455702 0)
(-0.03534484893 0.1773441897 0)
(-0.0527757146 0.1958765791 0)
(-0.06728849353 0.200035889 0)
(-0.07881489123 0.1954452216 0)
(-0.0880440692 0.184962694 0)
(-0.09588611061 0.1694604409 0)
(-0.1032961386 0.1485082009 0)
(-0.1112068711 0.120873962 0)
(-0.1204584193 0.08488154828 0)
(-0.1316677009 0.03870529013 0)
(-0.1449678724 -0.01927679327 0)
(-0.1595340738 -0.08988380315 0)
(-0.1728206167 -0.1718696576 0)
(-0.1795928171 -0.2593671275 0)
(-0.1714646041 -0.3372327974 0)
(-0.1390846445 -0.3747409435 0)
(-0.08123058525 -0.3242162098 0)
(-0.01262689003 -0.1448631141 0)
(-0.003464922462 0.07065295075 0)
(-0.02225655992 0.153430933 0)
(-0.04028032653 0.1948354998 0)
(-0.05432887643 0.2099408171 0)
(-0.06263655014 0.2101926667 0)
(-0.06612288888 0.2023448259 0)
(-0.06624096469 0.1896477724 0)
(-0.06444928803 0.1730928911 0)
(-0.06215476769 0.1522856114 0)
(-0.06075000532 0.125996038 0)
(-0.06163610052 0.0924835552 0)
(-0.06618036555 0.04969106448 0)
(-0.07555704814 -0.004590797534 0)
(-0.09034179547 -0.0724421523 0)
(-0.1096801286 -0.1550039087 0)
(-0.1297884796 -0.2501801114 0)
(-0.1420051847 -0.347059047 0)
(-0.1328047776 -0.4150591408 0)
(-0.09189262658 -0.3916648253 0)
(-0.01764380883 -0.1936660029 0)
(-0.005829817541 0.08564208176 0)
(-0.03120983488 0.1737750912 0)
(-0.04866784235 0.2102654811 0)
(-0.05648782711 0.2179762041 0)
(-0.05485836192 0.211719207 0)
(-0.04655980462 0.1990976622 0)
(-0.03414809597 0.1834031049 0)
(-0.01970347603 0.1655315272 0)
(-0.005029851745 0.1450429191 0)
(0.00814927197 0.1207355665 0)
(0.01804753633 0.09094780713 0)
(0.02275457648 0.05365449645 0)
(0.02025864781 0.006461237111 0)
(0.008652204043 -0.05344361636 0)
(-0.01326592704 -0.1291669292 0)
(-0.04446887639 -0.2228741568 0)
(-0.07849734536 -0.33080233 0)
(-0.1002592267 -0.4290485364 0)
(-0.09051920208 -0.4472311327 0)
(-0.0227257762 -0.2507852442 0)
(-0.009858804344 0.1096160349 0)
(-0.04559888938 0.1979749537 0)
(-0.05888425297 0.2207514464 0)
(-0.05362123274 0.2153259141 0)
(-0.03531666925 0.1997694894 0)
(-0.009792304098 0.1813421761 0)
(0.01919287126 0.1625516225 0)
(0.04912149193 0.1437671664 0)
(0.07804733642 0.1243026735 0)
(0.1042071525 0.1029443021 0)
(0.1257362159 0.07819839245 0)
(0.1405146618 0.04827572562 0)
(0.1460862819 0.01098705645 0)
(0.1396864012 -0.03649809625 0)
(0.1184132685 -0.09813629858 0)
(0.08002613369 -0.1793499775 0)
(0.02624161711 -0.284853591 0)
(-0.03074109691 -0.4046699407 0)
(-0.06598879627 -0.4745000378 0)
(-0.0250632104 -0.3121825528 0)
(-0.01732593592 0.1531293337 0)
(-0.06167773806 0.2245188741 0)
(-0.05478800852 0.2164948377 0)
(-0.02017281296 0.1916549216 0)
(0.02561014393 0.1662036121 0)
(0.0744853661 0.1433759869 0)
(0.1228758855 0.123482639 0)
(0.1688402097 0.105840923 0)
(0.2110317465 0.08931046866 0)
(0.2482279767 0.07262460711 0)
(0.2789268902 0.0545677005 0)
(0.3012370737 0.0337515599 0)
(0.3127522356 0.008458957438 0)
(0.3104983087 -0.02354022235 0)
(0.2908187737 -0.06565403672 0)
(0.248946723 -0.1240729044 0)
(0.1805704065 -0.2100218641 0)
(0.08875237349 -0.3321093573 0)
(-0.00392178488 -0.4513516764 0)
(-0.01740133292 -0.3626953185 0)
(-0.02352754444 0.2093125433 0)
(-0.0369955022 0.2320471453 0)
(0.03820592098 0.1771860471 0)
(0.1247578623 0.1364410175 0)
(0.203418346 0.1075291731 0)
(0.2729974732 0.08583889759 0)
(0.3343367896 0.06933241393 0)
(0.3880303254 0.05637816347 0)
(0.4344020007 0.04552909105 0)
(0.47327372 0.03565069421 0)
(0.5041146084 0.02580520257 0)
(0.5262040152 0.01499971786 0)
(0.5376308321 0.002245856367 0)
(0.5357069137 -0.01372551132 0)
(0.51641846 -0.03521338697 0)
(0.4741136669 -0.06617049793 0)
(0.4003855648 -0.1169557164 0)
(0.2831019627 -0.208550788 0)
(0.1279946044 -0.3385002714 0)
(0.0363057263 -0.3386076349 0)
(0.242165913 0.1094070652 0)
(0.314578537 0.0974515954 0)
(0.4462186178 0.05686668732 0)
(0.551523398 0.03468023708 0)
(0.6253717104 0.02305087102 0)
(0.6797189115 0.01592407041 0)
(0.721887598 0.01123069286 0)
(0.755355171 0.008056165714 0)
(0.7820056545 0.005797017595 0)
(0.8028613285 0.004034529663 0)
(0.8182555251 0.002432633517 0)
(0.8279196495 0.0007386287185 0)
(0.8310080104 -0.001222084067 0)
(0.8260795963 -0.003597523088 0)
(0.8106950278 -0.006714026915 0)
(0.7805601191 -0.01133884259 0)
(0.7267005398 -0.01962875751 0)
(0.6315107188 -0.0365547466 0)
(0.4598136556 -0.08529962059 0)
(0.3043059694 -0.1256687297 0)
)
;

boundaryField
{
    movingWall
    {
        type            calculated;
        value           uniform (1 0 0);
    }
    fixedWalls
    {
        type            calculated;
        value           uniform (0 0 0);
    }
    frontAndBack
    {
        type            empty;
    }
}


// ************************************************************************* //
