/*--------------------------------*- C++ -*----------------------------------*\
  =========                 |
  \\      /  F ield         | OpenFOAM: The Open Source CFD Toolbox
   \\    /   O peration     | Website:  https://openfoam.org
    \\  /    A nd           | Version:  13
     \\/     M anipulation  |
\*---------------------------------------------------------------------------*/
FoamFile
{
    format      ascii;
    class       vectorField;
    location    "30.16";
    object      U_all;
}
// * * * * * * * * * * * * * * * * * * * * * * * * * * * * * * * * * * * * * //


400
(
(1.095860328e-05 -3.786351887e-05 0)
(-0.0006661441222 0.0004130354477 -1.548263238e-23)
(-0.002185381343 0.0009203888277 0)
(-0.004047822145 0.001312773665 0)
(-0.005971843273 0.001535057339 6.841141324e-25)
(-0.007762747237 0.001569839434 4.15196461e-24)
(-0.009284501057 0.001423556615 -7.35986782e-24)
(-0.01043589175 0.001119718702 7.544626531e-24)
(-0.01113676237 0.0006960806549 -2.096523426e-25)
(-0.01132706096 0.0002030779864 -3.996333114e-24)
(-0.01097172756 -0.0003002314173 5.805420758e-24)
(-0.01007229164 -0.0007475130555 -5.930999883e-23)
(-0.008679854614 -0.001075558766 -6.55413985e-23)
(-0.006902838835 -0.001233040565 -7.785794198e-23)
(-0.00491073424 -0.001192635741 4.57451767e-24)
(-0.002927236169 -0.0009619195688 -4.138896968e-24)
(-0.001205308518 -0.0005912130989 -1.999389936e-22)
(-1.907884291e-05 -0.0001698861111 0)
(0.0005181462796 0.0001720817214 1.512279915e-25)
(0.0002227493278 0.0003059763929 -2.587656753e-24)
(-0.0002633845487 0.0008289212583 1.385394988e-25)
(-0.002703317278 0.003383804563 1.558008381e-23)
(-0.006907255791 0.005604458309 1.550614634e-25)
(-0.01195226374 0.00700816095 -8.486116265e-25)
(-0.01713495328 0.007553729273 1.160766018e-24)
(-0.02197523291 0.007294157234 1.30545282e-23)
(-0.02611061666 0.00632186048 1.402793899e-24)
(-0.02926548943 0.004754171435 -7.295979262e-24)
(-0.03122656778 0.002737143725 1.015943947e-23)
(-0.03184185196 0.0004524112138 4.511943136e-24)
(-0.03102746954 -0.001884127021 -6.320849997e-24)
(-0.02879304218 -0.00402300253 2.961512376e-24)
(-0.02527128616 -0.005708322282 3.896282868e-23)
(-0.02073188095 -0.006707376995 -1.955240407e-24)
(-0.0155895873 -0.006854112562 3.755438766e-24)
(-0.01038511923 -0.006097446209 -9.74422203e-23)
(-0.005730274255 -0.004546180366 9.640991203e-23)
(-0.002233376541 -0.002507423815 -3.966552859e-25)
(-0.0001817838467 -0.0005023834807 4.066590072e-25)
(8.343396456e-05 0.0006099173195 0)
(-0.0004188263828 0.002935047738 -2.912810065e-25)
(-0.004647861036 0.008803947156 1.705233188e-23)
(-0.01137190336 0.01324033075 -8.254023551e-24)
(-0.01932718278 0.01579193691 -2.070789794e-25)
(-0.02747395655 0.01652989707 2.034334608e-25)
(-0.03511758086 0.01564432435 7.284417464e-27)
(-0.04171320389 0.01335990307 -1.23482708e-24)
(-0.04683544935 0.009919724368 -4.560607533e-25)
(-0.05014961272 0.005602417051 -1.063797622e-23)
(-0.05141204792 0.0007444356903 0)
(-0.05047768027 -0.004241737328 0)
(-0.04733684117 -0.008887121929 2.671781021e-23)
(-0.04215909651 -0.01268169109 2.813752243e-23)
(-0.03531423547 -0.01513597057 -1.646642984e-24)
(-0.027389868 -0.0158618223 4.847471497e-23)
(-0.01917000407 -0.01467328578 9.422426974e-23)
(-0.01156088355 -0.01169357148 3.978898055e-23)
(-0.005465407188 -0.007450735038 4.152457975e-25)
(-0.001451102438 -0.002936053301 1.068287304e-25)
(-9.072751304e-05 0.0002258647048 0)
(-0.0005024625494 0.006045304278 -4.251905914e-23)
(-0.006402705938 0.01637063966 -1.69545334e-23)
(-0.01553493212 0.02355917412 8.180897388e-24)
(-0.02627896043 0.02744144539 0)
(-0.03728723976 0.02832084452 0)
(-0.04769008639 0.02658756971 0)
(-0.05679629341 0.02263108306 -4.513675372e-26)
(-0.06405347068 0.01683601763 -2.128812394e-24)
(-0.06901043047 0.00962215913 0)
(-0.07130789805 0.001491077116 1.637294164e-24)
(-0.07070817565 -0.006936429774 2.803916935e-25)
(-0.0671300705 -0.01493007625 -2.811767827e-25)
(-0.06069878018 -0.0216671446 0)
(-0.05180728476 -0.02631591202 4.134822724e-23)
(-0.04114975412 -0.02816057196 -4.68313646e-23)
(-0.02971959483 -0.02677361035 -2.763592377e-23)
(-0.01873710648 -0.02221522974 -3.964095007e-23)
(-0.009488002498 -0.01521918705 7.795791896e-25)
(-0.002976874713 -0.007298193639 9.786821894e-23)
(-0.0002318793295 -0.0008661797896 0)
(-0.000531610682 0.01009494655 4.272585528e-23)
(-0.007983544628 0.02595201945 4.780419563e-25)
(-0.019396755 0.03642858561 -4.671236615e-25)
(-0.03282362249 0.04185493717 0)
(-0.04664660687 0.04289458872 7.778238105e-25)
(-0.05985194121 0.04020051002 -7.670389843e-25)
(-0.07163250002 0.03434723963 3.67082764e-23)
(-0.08132705777 0.02585653049 1.84667047e-23)
(-0.08836553446 0.01527294688 6.234777196e-24)
(-0.09225421791 0.003246185035 -1.639201634e-24)
(-0.09260333906 -0.009407725129 0)
(-0.08917513304 -0.02167461551 4.373007705e-25)
(-0.08195942253 -0.03236724597 1.009819814e-23)
(-0.07126854778 -0.04021227882 -4.350953501e-23)
(-0.05781995128 -0.04402024717 1.933891544e-24)
(-0.04278566298 -0.04294810755 4.22051039e-23)
(-0.02775440082 -0.03683333246 -3.846929942e-25)
(-0.01455057236 -0.02652713167 0)
(-0.004859446861 -0.0140845207 5.436527681e-23)
(-0.0003641468765 -0.002846959213 -2.564711517e-22)
(-0.0005272180392 0.01499917702 9.838358269e-23)
(-0.00937786915 0.03738997633 -4.905347354e-25)
(-0.02288169177 0.05170189654 0)
(-0.03883020777 0.05894146393 0)
(-0.05538624997 0.06025538919 -8.730558597e-23)
(-0.07142836796 0.05661869873 -8.497577561e-23)
(-0.08606607659 0.04880144701 -4.065938909e-23)
(-0.09855034708 0.03743965315 -1.503630561e-23)
(-0.1081939902 0.0231597856 -5.365289466e-24)
(-0.1143439247 0.006709724489 -8.1729884e-24)
(-0.1164040861 -0.01093278336 6.598967137e-24)
(-0.1138932384 -0.02848923321 8.822718628e-24)
(-0.1065482474 -0.044370187 -1.892286663e-23)
(-0.09446765591 -0.05675303042 4.590996012e-24)
(-0.07826826131 -0.06378267865 0)
(-0.05922872868 -0.06393467751 -1.574570941e-23)
(-0.03933967312 -0.05653794582 -2.375929181e-26)
(-0.02114181123 -0.04235795208 0)
(-0.007318676518 -0.02398223359 -1.520286847e-22)
(-0.0005216140061 -0.005925540003 6.055530275e-22)
(-0.0004990794304 0.0206456122 -9.771340206e-23)
(-0.01052945232 0.05045406033 2.831659323e-22)
(-0.02582943577 0.06912468861 1.526701646e-22)
(-0.04402115098 0.07849211156 3.618787859e-24)
(-0.06310706682 0.08029431194 -7.319269703e-23)
(-0.08190364154 0.07588003431 9.04193495e-23)
(-0.09947715717 0.06621660035 -3.589723372e-24)
(-0.1150222053 0.05201675306 -1.728920588e-24)
(-0.1277513521 0.03392350766 2.523786446e-24)
(-0.1368466807 0.01270237732 7.380746835e-24)
(-0.1414704793 -0.0105876615 -6.498837072e-24)
(-0.1408242713 -0.03445998048 -9.783749232e-24)
(-0.1342740949 -0.05692737491 -3.261773167e-23)
(-0.1215445843 -0.07553277084 -3.658849014e-23)
(-0.102966903 -0.08754220112 5.640605488e-25)
(-0.07976342351 -0.09039171879 0)
(-0.05426663963 -0.08244482515 0)
(-0.02987150762 -0.06397715192 -2.905501751e-24)
(-0.01066281459 -0.03798783702 2.969938498e-24)
(-0.0007350902882 -0.01050087347 1.027866554e-22)
(-0.0004479151681 0.02687234691 0)
(-0.01134918096 0.06480718391 2.001964342e-22)
(-0.02801587044 0.08829565412 8.962040962e-23)
(-0.04799835998 0.1001229317 0)
(-0.06920571921 0.1027071126 1.569725446e-22)
(-0.09044335122 0.0978153126 0)
(-0.1107827198 0.08661066085 -1.428299499e-22)
(-0.129408876 0.06983926122 6.515047106e-24)
(-0.1454766281 0.04808221913 0)
(-0.1580346282 0.02201759516 0)
(-0.1660127923 -0.007334264225 -1.374276075e-24)
(-0.1682666194 -0.03838809994 -9.31540123e-25)
(-0.1637059669 -0.06883936206 1.491801084e-22)
(-0.1515204238 -0.09558229255 -4.704644071e-23)
(-0.13151307 -0.1148293709 -2.56041803e-24)
(-0.1045593035 -0.1225698617 1.534180549e-24)
(-0.0730932858 -0.1155513817 -1.558381154e-24)
(-0.04135009255 -0.09283084957 0)
(-0.01525225604 -0.05740750494 3.203517683e-24)
(-0.001044304813 -0.01714710134 -1.01283795e-21)
(-0.0003744672936 0.03346285506 0)
(-0.01175002272 0.07998873816 -1.128130101e-22)
(-0.029206981 0.1086385008 -6.190816729e-22)
(-0.05031727992 0.1232227555 -3.755137747e-22)
(-0.07296293092 0.1269090837 0)
(-0.09598929098 0.1219250231 4.1192784e-22)
(-0.1185269803 0.1096344408 1.260846521e-22)
(-0.13981423 0.09078217713 -5.581558884e-24)
(-0.1590217128 0.06581380464 5.553933167e-24)
(-0.1751456415 0.03520884095 0)
(-0.1869555353 -0.0001965667372 2.912012916e-23)
(-0.1930168093 -0.03889722664 4.695551673e-24)
(-0.1917805551 -0.078438454 -1.076715775e-22)
(-0.1817870389 -0.1151860209 8.003308151e-23)
(-0.1620566845 -0.1442593814 -2.419558242e-22)
(-0.1327059028 -0.1598542963 0)
(-0.09577866157 -0.1563107763 0)
(-0.05601619673 -0.1302977088 0)
(-0.02147853681 -0.0838111101 0)
(-0.001500379484 -0.02665509239 5.571734916e-22)
(-0.0002873928935 0.04016057079 0)
(-0.01169357753 0.09543562707 -3.492850664e-22)
(-0.02924432663 0.1294067167 8.932455184e-22)
(-0.050609368 0.1469292159 3.617015454e-22)
(-0.07370067063 0.1519741927 0)
(-0.09745130836 0.1472752079 -3.862387119e-22)
(-0.1211067419 0.1344187345 -3.174316752e-23)
(-0.1440322082 0.1141390243 3.333006799e-22)
(-0.1655140348 0.08669992329 1.769424623e-22)
(-0.184624554 0.05229125734 -4.060043238e-23)
(-0.20013228 0.01141734126 1.656814324e-23)
(-0.2104619447 -0.03471392056 -8.26494328e-24)
(-0.2137205578 -0.08376519426 3.371754902e-22)
(-0.2078212631 -0.1318750976 0)
(-0.1908235825 -0.173275013 2.420727177e-22)
(-0.1616333314 -0.2002587173 5.774191605e-24)
(-0.1211660736 -0.2040115832 -5.860301888e-24)
(-0.07384976811 -0.1772115116 1.548252065e-22)
(-0.02971781011 -0.1188639206 -5.434860277e-24)
(-0.002179539309 -0.04005388595 0)
(-0.0002117246649 0.04671618918 0)
(-0.01125001511 0.1105493099 0)
(-0.02815624019 0.1497348311 -5.022587735e-22)
(-0.04874477056 0.1701510323 -1.880942793e-23)
(-0.07100082204 0.1766250143 2.038320909e-23)
(-0.09399445037 0.1724520425 -2.014254088e-23)
(-0.1171433506 0.1594866251 -2.316822812e-23)
(-0.1400178635 0.1384801946 -3.029734058e-22)
(-0.162132801 0.1095159274 6.698589853e-23)
(-0.1827958186 0.07245189205 4.51305404e-23)
(-0.2009834738 0.02734946535 -4.577595482e-23)
(-0.2152269442 -0.02508666401 0)
(-0.2235561322 -0.08298308492 -7.839201044e-23)
(-0.2234631166 -0.1427252109 0)
(-0.2120678228 -0.1981814961 -3.739454829e-22)
(-0.1867433217 -0.2400767393 5.244749721e-22)
(-0.1464437 -0.2560767199 0)
(-0.09394557425 -0.2331204089 -1.493804188e-22)
(-0.04021995563 -0.1639609921 1.937353962e-22)
(-0.003201094077 -0.05861049829 -3.411333969e-22)
(-0.0002015472257 0.05297564966 0)
(-0.01067264749 0.1248167497 9.182676843e-22)
(-0.02628451901 0.1687417996 -2.440628739e-23)
(-0.04501114683 0.1916447935 9.193150248e-22)
(-0.06494605507 0.1992914121 -2.51202949e-23)
(-0.0853663754 0.1956098328 2.838783352e-23)
(-0.1059306667 0.1827882242 -2.812869967e-23)
(-0.1264925355 0.1616580537 -1.66088577e-23)
(-0.1468998185 0.1321761021 -5.260130492e-22)
(-0.1668459657 0.09389649993 -8.906464732e-24)
(-0.1857304631 0.04640594035 9.660029677e-24)
(-0.2024783309 -0.01023754947 3.313029411e-22)
(-0.2154156103 -0.07499780661 -5.820638432e-22)
(-0.2220210893 -0.1450307083 0)
(-0.2188032823 -0.2146755232 8.887120635e-22)
(-0.2016257715 -0.2740010579 -4.940694704e-22)
(-0.1668638923 -0.3075805959 -1.57216083e-23)
(-0.1140219595 -0.2953806364 0)
(-0.05288478039 -0.2195798448 -1.889990956e-22)
(-0.004749182288 -0.08377261841 3.360395126e-22)
(-0.0003642061112 0.05902299959 1.550980707e-23)
(-0.01049579167 0.1379877034 -8.764013434e-22)
(-0.02441400303 0.1856797972 -1.15703941e-21)
(-0.04026740339 0.2101377977 -8.628810703e-22)
(-0.05630749988 0.2182342382 0)
(-0.07214880856 0.2146184669 3.513743918e-23)
(-0.08779249495 0.2018787735 -7.294742233e-23)
(-0.1034565912 0.1810003002 5.867788936e-23)
(-0.1193987297 0.1518996276 3.02131603e-22)
(-0.1357935217 0.1139151121 -1.128179178e-23)
(-0.1526086145 0.06621443314 0)
(-0.1694525204 0.008177486823 -3.603876442e-22)
(-0.1852764245 -0.06015951944 7.515570437e-22)
(-0.1980451774 -0.1372742901 8.831596558e-22)
(-0.2043548899 -0.2189257344 -5.296525556e-22)
(-0.1990979445 -0.2959707976 5.162592999e-22)
(-0.1760606304 -0.3514067357 1.078173172e-23)
(-0.1300890879 -0.3584145646 -1.095487253e-23)
(-0.06688801986 -0.284327235 -8.217197445e-23)
(-0.007083315557 -0.1169962624 0)
(-0.0009095860007 0.06540027278 -1.911456789e-23)
(-0.01167598924 0.1502812631 -1.32694667e-21)
(-0.02388897643 0.2000654213 1.094218971e-21)
(-0.03601364309 0.2244210956 6.734832667e-22)
(-0.04657340094 0.2316582417 6.014545407e-22)
(-0.05577076266 0.2272388725 6.643862635e-22)
(-0.06411288829 0.2141771207 -4.45861461e-23)
(-0.07227609071 0.1936492245 -3.461293217e-22)
(-0.08097023732 0.1656027715 2.152136773e-22)
(-0.09087245309 0.1292708139 0)
(-0.1025552849 0.08353101494 0)
(-0.1163627502 0.02720037717 2.655371604e-22)
(-0.1321594683 -0.04061974185 8.194351791e-23)
(-0.1489257018 -0.1200124871 -2.821576008e-22)
(-0.1641288325 -0.2089297088 -5.411210335e-23)
(-0.1727880775 -0.3006988705 1.30195212e-22)
(-0.1670313414 -0.3793325019 -3.400408943e-22)
(-0.1365293482 -0.4136447742 -1.594743078e-23)
(-0.08018252371 -0.3538322447 8.205967555e-23)
(-0.01050762168 -0.1594128752 -6.032335147e-22)
(-0.002260506888 0.07348873696 0)
(-0.01580364181 0.162651889 2.145845834e-21)
(-0.02665061603 0.2117900444 0)
(-0.03422369449 0.2333942301 -1.351789767e-21)
(-0.03759438174 0.2377761937 6.184079474e-23)
(-0.03799733195 0.2312549341 -6.19300616e-22)
(-0.03668320128 0.2171895956 -4.756225032e-22)
(-0.03489095058 0.1968932828 8.301153246e-22)
(-0.03378899407 0.1703342074 -1.885675459e-22)
(-0.03449938882 0.1367221986 0)
(-0.03811634626 0.09479692273 0)
(-0.0456505243 0.04304311531 2.410629764e-23)
(-0.05790861208 -0.0201375318 -6.00714332e-22)
(-0.07514650997 -0.09620621839 -4.309525051e-22)
(-0.09645221323 -0.1855553419 4.63781991e-22)
(-0.1183466433 -0.2853565064 -6.488638789e-22)
(-0.1332718204 -0.3838383697 9.119814875e-23)
(-0.1265352652 -0.4504355711 2.938281316e-23)
(-0.08899159827 -0.4198533417 5.660523072e-22)
(-0.01526918257 -0.2111718091 6.020967559e-22)
(-0.005180906839 0.08598041034 0)
(-0.02525559446 0.1766289326 1.465581375e-22)
(-0.03483428175 0.2205958486 -4.91708773e-23)
(-0.03640046261 0.2354855602 7.642834641e-22)
(-0.03018526705 0.2343402954 -7.005287714e-22)
(-0.01916632503 0.2241600579 4.746423354e-23)
(-0.005615743945 0.2083523428 -1.01860044e-22)
(0.008568972839 0.1881239773 -3.38984888e-22)
(0.02179820598 0.1633911085 2.062801972e-22)
(0.03262716625 0.1333243567 0)
(0.03958396115 0.09664102473 0)
(0.04116954578 0.05174077741 -2.902643558e-22)
(0.03578429376 -0.003255166332 0)
(0.02198135146 -0.07058338065 -5.51214571e-22)
(-0.001265283825 -0.1525733441 -1.492341554e-23)
(-0.03310506741 -0.2505948007 2.559691507e-23)
(-0.06909265269 -0.3599339737 2.203059542e-22)
(-0.09227846286 -0.4575422788 4.788589253e-24)
(-0.08718097759 -0.4698127466 -5.789496946e-22)
(-0.02103127965 -0.2698971026 0)
(-0.01111631941 0.1085974933 0)
(-0.04248909 0.1947150795 -8.848390699e-22)
(-0.04795546601 0.225819368 -5.410991091e-22)
(-0.03919565441 0.2282133075 4.543770081e-22)
(-0.0187787112 0.2182325472 -1.709990608e-24)
(0.0076638098 0.2028217942 -4.56099686e-23)
(0.03667936254 0.1847617955 5.696615027e-22)
(0.06582937497 0.1647117152 -2.766861577e-23)
(0.09327068583 0.1423127972 -2.069760703e-22)
(0.1173885526 0.1166275523 3.142184626e-23)
(0.1365455947 0.08641156059 -3.425888648e-23)
(0.1489663995 0.05017685321 -3.690566774e-23)
(0.1525271078 0.006159347022 3.205609895e-22)
(0.1449362932 -0.04796109711 6.119559982e-22)
(0.1235156252 -0.1153051424 -5.101127379e-22)
(0.08633504244 -0.200419448 -1.616022781e-22)
(0.03199063764 -0.3067805684 1.531342119e-22)
(-0.02362141405 -0.4239836229 7.293699648e-23)
(-0.06492420472 -0.4871611747 1.913298221e-21)
(-0.0250997272 -0.329154393 2.954998941e-21)
(-0.02004680213 0.1460727646 -4.390179802e-23)
(-0.06416409508 0.2112955705 4.41735238e-23)
(-0.0507024107 0.2177299679 1.000180185e-21)
(-0.01934117071 0.2014678638 -8.270355058e-24)
(0.02414435373 0.1809074574 0)
(0.0715408343 0.1606931791 4.36367037e-23)
(0.1190698852 0.1416494245 -2.273825229e-22)
(0.1644762341 0.1233181034 -9.027849086e-23)
(0.2062246002 0.1048117054 3.680693072e-23)
(0.2429637971 0.08507142984 -1.701640224e-23)
(0.2732202854 0.06296154964 3.429941922e-23)
(0.2952531892 0.03726304057 -6.5926274e-23)
(0.3066967386 0.006535183259 -9.303848388e-23)
(0.3049735211 -0.03087758929 1.517029952e-22)
(0.2863933723 -0.0778628172 0)
(0.2470566069 -0.1399299728 1.50557155e-22)
(0.1810920603 -0.2266299459 2.560017559e-22)
(0.09604438039 -0.3443894586 0)
(-0.006697678273 -0.4552209831 -3.675645628e-21)
(-0.01922409219 -0.3777537231 -2.892628166e-21)
(-0.02591950587 0.2276829052 -9.514185725e-22)
(-0.03998323426 0.2238216702 -1.388968612e-22)
(0.03656135628 0.1810585206 -2.335561039e-22)
(0.109050239 0.1451058614 -1.193731686e-22)
(0.1817189841 0.1172444804 -4.295778844e-23)
(0.2490088638 0.09627900295 9.783035295e-23)
(0.3100333959 0.08002504129 -1.408572008e-22)
(0.3646206119 0.06656811102 1.297159372e-22)
(0.4126249035 0.0544917729 -8.620024114e-23)
(0.4536246836 0.04270895987 1.132189304e-25)
(0.4867875471 0.03032301724 1.527728223e-23)
(0.5107448489 0.01652906682 7.997138308e-23)
(0.5236595079 0.0005365658483 -1.81110878e-22)
(0.5231796198 -0.01863368226 -1.61713207e-22)
(0.5052322082 -0.0428647489 -4.262864e-23)
(0.4658714137 -0.07633228621 0)
(0.3952695811 -0.1286089303 -1.8464984e-22)
(0.291607053 -0.2208468073 8.148784493e-22)
(0.1197454792 -0.3525016879 1.631605032e-21)
(0.0267054647 -0.3775497931 2.172657616e-21)
(0.2142894546 0.1347447282 9.864968558e-22)
(0.2776311425 0.09870504527 0)
(0.4316592557 0.05810415299 -2.594301585e-22)
(0.530474946 0.03846264821 -1.741648077e-22)
(0.6016965554 0.02623418517 0)
(0.6571198376 0.01831922702 -6.008997738e-23)
(0.7015212654 0.01313600175 6.377903089e-23)
(0.7376041275 0.009542122581 -1.800130543e-23)
(0.7669367045 0.00680446392 2.885934956e-23)
(0.7902105314 0.004464748294 2.31500636e-23)
(0.8074553773 0.002221327493 0)
(0.8182620348 -0.0001500653209 -2.873006831e-23)
(0.8216498995 -0.0027238381 0)
(0.8162393775 -0.005712660945 2.738105276e-23)
(0.7991332965 -0.009611378272 1.42164943e-23)
(0.7679986321 -0.01500254982 -5.799445305e-23)
(0.7106555793 -0.02502520155 -2.535673213e-22)
(0.6235184004 -0.04204285645 -6.918118232e-22)
(0.4230091015 -0.09182968328 0)
(0.2705674682 -0.1524021852 -2.119485439e-21)
)


// ************************************************************************* //
