/*--------------------------------*- C++ -*----------------------------------*\
  =========                 |
  \\      /  F ield         | OpenFOAM: The Open Source CFD Toolbox
   \\    /   O peration     | Website:  https://openfoam.org
    \\  /    A nd           | Version:  13
     \\/     M anipulation  |
\*---------------------------------------------------------------------------*/
FoamFile
{
    format      ascii;
    class       scalarField;
    location    "25";
    object      p_all;
}
// * * * * * * * * * * * * * * * * * * * * * * * * * * * * * * * * * * * * * //


400
(
-6.845572446e-09
-0.0005058147156
-0.001116064569
-0.001578733721
-0.001777353955
-0.001665027215
-0.001220258385
-0.0004354092094
0.0006778088102
0.002074617684
0.003663346865
0.005299521869
0.00679587537
0.007951710704
0.008599990533
0.008660890904
0.008183919511
0.007363007602
0.006513042147
0.005975276559
0.0005117246936
-1.147685989e-05
-0.0005466061129
-0.0009134529406
-0.00105634616
-0.0009497935582
-0.0005757033992
7.745222664e-05
0.001006740942
0.002181387466
0.003529176222
0.004929941577
0.006222332768
0.007230002512
0.007804130118
0.007872415815
0.007475802434
0.006774655952
0.006017584264
0.005469463486
0.00114573891
0.0004874088787
-7.822724342e-05
-0.000413947369
-0.0005426170971
-0.000471415305
-0.0001883690784
0.0003249319146
0.001080455637
0.002067499983
0.003235913402
0.004485395556
0.00566840291
0.006612861604
0.007164336351
0.007237130262
0.006852851672
0.006141581432
0.005301022082
0.004585551862
0.001594721797
0.0007445012084
6.890488246e-05
-0.0003077437584
-0.00047880554
-0.0004831819189
-0.0003133303182
6.004296678e-05
0.0006693621472
0.001528977072
0.002612344997
0.003834401674
0.005048062585
0.006063506431
0.006692400831
0.006807721735
0.006394172896
0.005555368376
0.004473331017
0.003464315491
0.001618078041
0.0005723104594
-0.0002390855248
-0.0006977516383
-0.0009570411331
-0.001080700373
-0.001060157777
-0.0008496482545
-0.000390018973
0.0003648740545
0.001418156143
0.002703233033
0.004070285424
0.005298945752
0.006143102094
0.006402994337
0.005997533595
0.004992382334
0.003574359596
0.002177958228
0.00101774907
-0.0002044205993
-0.001154446
-0.001722211728
-0.002112623875
-0.002407060695
-0.002590084351
-0.002593559844
-0.002324220816
-0.001694133008
-0.0006579296049
0.000749498204
0.002383921237
0.003991130399
0.005245782728
0.005835685023
0.005566220678
0.004429146173
0.002615060191
0.0007339916497
-0.0003743661493
-0.001743634134
-0.002827415633
-0.003528770666
-0.004097485511
-0.004627182982
-0.005091556154
-0.005395442675
-0.00540371227
-0.004973356294
-0.003996540348
-0.002452612191
-0.0004553402468
0.001718047956
0.003648241822
0.004862770988
0.004979738404
0.003842416982
0.001609395168
-0.0008678733204
-0.002691341858
-0.004172294207
-0.005381641607
-0.006241226228
-0.007040795247
-0.007883862672
-0.008732621383
-0.00946311447
-0.009892038024
-0.009806717575
-0.009011115155
-0.007390219059
-0.004985440378
-0.002062102913
0.0008709806266
0.003134603078
0.004057987105
0.003204802265
0.0006042512255
-0.00258410587
-0.006020838109
-0.007573348965
-0.008895396935
-0.009933042539
-0.01101378395
-0.01225293922
-0.01360519795
-0.01492053911
-0.01596504771
-0.01644393377
-0.0160452313
-0.01451359871
-0.01175494958
-0.007956145756
-0.003673608779
0.0001847758404
0.002543286243
0.002486040745
-0.000285285616
-0.004267722028
-0.01039579581
-0.01197533963
-0.01338577211
-0.01460211126
-0.01599269642
-0.01769250502
-0.01965810806
-0.02172148303
-0.02360159369
-0.02491569115
-0.02521399037
-0.0240551113
-0.02113643166
-0.0164675716
-0.01055678402
-0.004502433308
0.0001237751692
0.001669401171
-0.000827819134
-0.005583152497
-0.01579333399
-0.01734971872
-0.01879915932
-0.02014987601
-0.02182482047
-0.02399489747
-0.02663315123
-0.02956589822
-0.03247420437
-0.03489055704
-0.03621844781
-0.03579915917
-0.03305638833
-0.02770882931
-0.02006793582
-0.01129127203
-0.003447328341
0.0008180899274
-0.0005988961839
-0.005875817645
-0.02215110144
-0.02362293666
-0.0250137525
-0.02637167155
-0.02820858545
-0.03075931803
-0.03403143597
-0.03785828783
-0.04189390507
-0.0455959014
-0.04822772256
-0.04890913719
-0.04674368692
-0.04107479617
-0.0318447649
-0.02004427569
-0.008084510382
0.0002465922742
0.001155124452
-0.003973760783
-0.02941337228
-0.03071007154
-0.03185706087
-0.03296222354
-0.03469700715
-0.03740243366
-0.04113733274
-0.04574778147
-0.05086502016
-0.05588003214
-0.05992972811
-0.06192610926
-0.06066492849
-0.05506488902
-0.0445668589
-0.02972997837
-0.01298450773
0.0008255424652
0.005755696904
0.002099494725
-0.03763004222
-0.03857683558
-0.03913513204
-0.03953307134
-0.04072675594
-0.04321509449
-0.04711240157
-0.05226542904
-0.0582696541
-0.06444409406
-0.06980673894
-0.07308454863
-0.07279687317
-0.06745928309
-0.05596547818
-0.03823763414
-0.01630592259
0.004332577711
0.015431942
0.01548860841
-0.04715804686
-0.04734158857
-0.04666608106
-0.0456345866
-0.04567031783
-0.04746179731
-0.05114725038
-0.05653125673
-0.06313433495
-0.07017559082
-0.07654186603
-0.08078293656
-0.08117211917
-0.07587508265
-0.06328512647
-0.04262705405
-0.01516840155
0.01362366785
0.03357176115
0.0407317296
-0.05900802471
-0.05744552349
-0.05432703681
-0.05079449981
-0.04892272227
-0.04951941519
-0.05264187271
-0.05796862596
-0.06487715842
-0.07243680059
-0.07936800483
-0.08402550202
-0.08443968797
-0.07845839887
-0.06404597284
-0.03980052856
-0.006063261553
0.03248489775
0.0645995939
0.0833147726
-0.07543045386
-0.06996721579
-0.06209031892
-0.05455305452
-0.04999450682
-0.04899975972
-0.05133215206
-0.05641607125
-0.06340442049
-0.07115519136
-0.07818013938
-0.08260734747
-0.08219999858
-0.07446373528
-0.05692078083
-0.02756688622
0.01421875685
0.06520280224
0.1141346259
0.1498937015
-0.1035438138
-0.08741226292
-0.06966187639
-0.05610886429
-0.04823568235
-0.04550284052
-0.04705540576
-0.05190969029
-0.05890128403
-0.06663974396
-0.07341830588
-0.07713140377
-0.07526567486
-0.06493082014
-0.043057737
-0.006741896723
0.04605457674
0.1147071273
0.1909722776
0.2577697824
-0.1754785503
-0.1144768878
-0.07346739031
-0.05190021905
-0.04121545032
-0.0374707108
-0.03892315777
-0.04408486895
-0.05141897161
-0.05932342285
-0.06596758607
-0.0690911458
-0.06598456426
-0.05341539393
-0.02761514966
0.0157984892
0.08189573751
0.1764958137
0.3044957827
0.4520629803
-0.3553539903
-0.1548539664
-0.07024308902
-0.04276986288
-0.0313733621
-0.02750492971
-0.02945978135
-0.03538778932
-0.04341157583
-0.05178574107
-0.05863788343
-0.06171644948
-0.05827759301
-0.04496011692
-0.01739501222
0.03035935331
0.1077829615
0.2326563876
0.4341141414
0.7352427581
)


// ************************************************************************* //
