/*--------------------------------*- C++ -*----------------------------------*\
  =========                 |
  \\      /  F ield         | OpenFOAM: The Open Source CFD Toolbox
   \\    /   O peration     | Website:  https://openfoam.org
    \\  /    A nd           | Version:  13
     \\/     M anipulation  |
\*---------------------------------------------------------------------------*/
FoamFile
{
    format      ascii;
    class       surfaceScalarField;
    location    "25";
    object      phi;
}
// * * * * * * * * * * * * * * * * * * * * * * * * * * * * * * * * * * * * * //

dimensions      [0 3 -1 0 0 0 0];

internalField   nonuniform List<scalar> 
760
(
-1.322446503e-05
1.321274308e-05
-7.201824806e-05
5.879379665e-05
-0.0001620674781
9.004924959e-05
-0.0002652118186
0.0001031442422
-0.0003682262005
0.0001030142608
-0.0004614836157
9.32574779e-05
-0.0005377259977
7.62426668e-05
-0.0005912163331
5.349063493e-05
-0.0006174835563
2.626727503e-05
-0.0006135654665
-3.918347344e-06
-0.0005784397244
-3.512611025e-05
-0.0005138273386
-6.461261839e-05
-0.0004246494987
-8.917781176e-05
-0.0003192771456
-0.0001053721385
-0.0002092253977
-0.0001100515318
-0.0001081418278
-0.0001010834813
-2.992963082e-05
-7.821222638e-05
1.414523605e-05
-4.407492217e-05
2.190731471e-05
-7.762094529e-06
2.190732733e-05
-6.870271223e-05
8.191545297e-05
-0.0002457656187
0.0002358566979
-0.0004934492141
0.0003377330226
-0.0007722382321
0.000381933454
-0.001050354866
0.0003811308211
-0.001302939129
0.0003458413624
-0.001510528261
0.0002838314061
-0.001657791557
0.0002007538823
-0.001733118969
0.0001015950662
-0.001729229267
-7.807517702e-06
-0.0016437638
-0.0001205912145
-0.001481358675
-0.0002270177267
-0.001254340775
-0.0003161959511
-0.0009832683779
-0.0003764447847
-0.0006961282065
-0.0003971917885
-0.0004257280831
-0.0003714835348
-0.0002049958054
-0.0002989443954
-5.981637259e-05
-0.0001892542866
-4.943517358e-07
-6.708408152e-05
2.141297102e-05
-0.0001229283592
0.0002048438243
-0.0004149501568
0.0005278783286
-0.000808623398
0.000731406201
-0.001247095478
0.0008204057365
-0.001684568051
0.0008186037343
-0.002084316662
0.0007455901672
-0.002416837512
0.0006163521233
-0.002658440253
0.0004423562625
-0.002790854905
0.0002340094151
-0.002802282549
3.620073091e-06
-0.002687783761
-0.0002350898238
-0.00245286093
-0.0004619403014
-0.002114092102
-0.0006549646288
-0.00170031682
-0.0007902200688
-0.001251785852
-0.0008457228281
-0.0008167255876
-0.0008065438346
-0.0004446164091
-0.0006710535498
-0.0001762315434
-0.0004576391035
-3.221294449e-05
-0.0002111026315
-1.079997075e-05
-0.000172068442
0.0003769123836
-0.0005725271919
0.000928337048
-0.001105903239
0.001264782018
-0.001697938542
0.001412440861
-0.00229046738
0.001411132622
-0.002837097619
0.001292220669
-0.003300040317
0.0010792951
-0.003648103323
0.0007904193655
-0.003856147453
0.0004420534385
-0.003905631356
5.310380383e-05
-0.003787577294
-0.0003531439909
-0.003503875697
-0.0007456418647
-0.003071149487
-0.001087690721
-0.00252253654
-0.001338832917
-0.001907930325
-0.001460329013
-0.001290865136
-0.001423609033
-0.0007407337994
-0.001221184888
-0.0003202636045
-0.0008781092781
-7.110120645e-05
-0.0004602649879
-8.190116297e-05
-0.0002170092626
0.0005939216866
-0.0007187908857
0.001430118909
-0.001385575429
0.001931566599
-0.002127002789
0.002153868068
-0.002874215048
0.002158344682
-0.003573003327
0.001991008871
-0.004178762206
0.001685054081
-0.004653351529
0.001265008873
-0.004963960262
0.0007526622968
-0.005083783803
0.0001729273572
-0.004994804074
-0.0004421237872
-0.004690992553
-0.001049453444
-0.004183351116
-0.00159533215
-0.003504256505
-0.002017927467
-0.002710352029
-0.002254233427
-0.001881513279
-0.002252447749
-0.001113196997
-0.001989501155
-0.000500805758
-0.001490500505
-0.0001191387639
-0.0008419319521
-0.0002010399068
-0.0002573522513
0.0008512737946
-0.0008512924213
0.002024059207
-0.001642207
0.002722481378
-0.002526422555
0.003038083734
-0.003426723562
0.00305864565
-0.004283174015
0.002847459201
-0.005045970999
0.00244785098
-0.005670754989
0.001889792886
-0.006116479441
0.001198386848
-0.006345711777
0.0004021597943
-0.006327585467
-0.0004602500523
-0.006042240181
-0.001334798737
-0.005488117747
-0.002149454597
-0.004689812413
-0.002816232785
-0.003705598092
-0.003238447706
-0.002631094215
-0.00332695158
-0.001594174368
-0.003026420969
-0.0007363634489
-0.002348311404
-0.000182114815
-0.001396180562
-0.0003831547007
-0.0002911694283
0.001142443137
-0.0009640772729
0.002696966936
-0.001864072629
0.003622476782
-0.002878008263
0.004052019504
-0.003923282878
0.004103920381
-0.004936781001
0.003860957351
-0.005865637165
0.003376707098
-0.00666072856
0.002684884234
-0.007273154436
0.001810812728
-0.007653686562
0.0007826919778
-0.007755527724
-0.0003584088203
-0.007539529039
-0.001550797377
-0.006983795738
-0.00270518788
-0.006095618106
-0.003704410403
-0.004925549408
-0.004408516375
-0.00357936939
-0.004673131558
-0.002220320444
-0.004385469872
-0.00105081365
-0.003517818167
-0.0002684594548
-0.002178534732
-0.0006516141368
-0.0003159523926
0.001458395623
-0.001048694065
0.003429708514
-0.002034448297
0.004608230931
-0.003154777052
0.005172348265
-0.004324964441
0.005274107853
-0.005481643414
0.00501763642
-0.006571696062
0.004466759796
-0.007543862855
0.003657051028
-0.008343539903
0.002610489769
-0.008910854824
0.001350006917
-0.009182535478
-8.672811708e-05
-0.009096755405
-0.001636577394
-0.008604348865
-0.003197594379
-0.007683993891
-0.004624765349
-0.006363900991
-0.005728609249
-0.004745919182
-0.006291113331
-0.003022802834
-0.006108586176
-0.001469542154
-0.005071078806
-0.0003882338295
-0.003259843021
-0.001039847949
-0.0003291857275
0.001787581456
-0.001096409165
0.004196932018
-0.002135013273
0.005646835005
-0.003325265985
0.006362600932
-0.004583513948
0.006532355818
-0.005849204303
0.006283326834
-0.007072380381
0.005689935952
-0.008203611477
0.004788282181
-0.009187033374
0.003593911691
-0.009956663813
0.002119637373
-0.01043584084
0.0003924489499
-0.01054202861
-0.001530389575
-0.0101948274
-0.003544795527
-0.009333901815
-0.005485690892
-0.007946469307
-0.007116041724
-0.006105802187
-0.008131780422
-0.004012846179
-0.008201542147
-0.002014549196
-0.007069375746
-0.000552789514
-0.00472160266
-0.001592637441
-0.0003297878166
0.002117369269
-0.001101682344
0.004968826662
-0.002151382616
0.006696535335
-0.003361012622
0.007572230943
-0.004650755997
0.007822099178
-0.005965845819
0.007598416669
-0.007263251451
0.006987341642
-0.0085004263
0.006025457109
-0.009626865344
0.004720350797
-0.01057845348
0.003071225542
-0.01127444604
0.001088441542
-0.01161800151
-0.001186834058
-0.01150148558
-0.003661311391
-0.01082038933
-0.006166787077
-0.009502876342
-0.008433554665
-0.007560503235
-0.01007415349
-0.005160795821
-0.01060124953
-0.002696071731
-0.009534099802
-0.0007741365282
-0.006643537821
-0.002366773946
-0.0003199356769
0.002437304897
-0.001066684953
0.005715575989
-0.002080415295
0.007710265753
-0.003246796237
0.008738611946
-0.004492279436
0.0090675824
-0.00577083645
0.008876973688
-0.007050274038
0.008266779256
-0.00830049824
0.007275681381
-0.009484258935
0.005904111586
-0.01054992122
0.004136887905
-0.01142558016
0.001964100531
-0.01201412992
-0.0005982842607
-0.01219374713
-0.003481694139
-0.0118209137
-0.006539620452
-0.01075531637
-0.009499151927
-0.008913686465
-0.01191578334
-0.006370801687
-0.01314413426
-0.003498928151
-0.0124059733
-0.001063138047
-0.009079327885
-0.003429911973
-0.0003074163019
0.002744721197
-0.001006604948
0.006414764631
-0.001938381538
0.008642042376
-0.002991932631
0.009792163106
-0.004102852843
0.01017850268
-0.005237494406
0.01001161529
-0.006378680748
0.009407965612
-0.007514145123
0.008411145787
-0.008627401783
0.007017368325
-0.009689921077
0.005199407306
-0.01065322182
0.002927401362
-0.01143764439
0.0001861383754
-0.01192952086
-0.002989817618
-0.01196503566
-0.006504105608
-0.01134375968
-0.01012042786
-0.009868964415
-0.01339057855
-0.007460094668
-0.01555300396
-0.004363812816
-0.01550225511
-0.001425525103
-0.01201761556
-0.004855437059
-0.0003089409757
0.003053662224
-0.0009556036105
0.007061427285
-0.001768551677
0.009454990443
-0.002639475997
0.01066308745
-0.003518368981
0.01105739572
-0.004389849183
0.01088309557
-0.005256863935
0.01027498042
-0.00612967594
0.009283957815
-0.007017882574
0.00790557499
-0.00792351196
0.006105036762
-0.00883240221
0.003836291708
-0.009704397757
0.001058134016
-0.01045089454
-0.002243320765
-0.01092426208
-0.006030738018
-0.01089513469
-0.01014955521
-0.01006495332
-0.01422075988
-0.008157332571
-0.01746062466
-0.00516763296
-0.01849195468
-0.001854344042
-0.01533090443
-0.006709781084
-0.0003552876666
0.003408949941
-0.0009733854813
0.007679525185
-0.001646149737
0.01012775474
-0.00226884172
0.01128577945
-0.002817006673
0.01160556068
-0.003303890789
0.01136997973
-0.003759632427
0.01073072215
-0.004221167391
0.009745492861
-0.004726403835
0.008410811484
-0.005310027383
0.006688660351
-0.005996921775
0.004523186155
-0.006792055343
0.001853267652
-0.007660825193
-0.001374550844
-0.008503240745
-0.005188322406
-0.00911335035
-0.009539445551
-0.009142632032
-0.01419147815
-0.008128473388
-0.01847478327
-0.005711184436
-0.0209092436
-0.0023182877
-0.01872380113
-0.00902806877
-0.00050039784
0.0039093478
-0.001151360116
0.008330487553
-0.001674935794
0.01065133052
-0.001981806024
0.01159264976
-0.002095883989
0.01171963864
-0.00207598504
0.01135008074
-0.001988754441
0.01064349156
-0.001901448119
0.009658186613
-0.001879233441
0.008388596902
-0.001986278286
0.006795705277
-0.002282767267
0.004819675196
-0.002819042179
0.002389542613
-0.003622418463
-0.0005711745139
-0.004669081251
-0.004141659575
-0.005834837008
-0.008373689756
-0.006807820328
-0.0132184948
-0.007016773069
-0.0182658305
-0.005716451713
-0.02220956493
-0.002739578868
-0.02170067395
-0.01176764763
-0.0008309066027
0.004740254429
-0.00160489985
0.009104480806
-0.001951103139
0.01099753387
-0.001839564311
0.01148111112
-0.001385668411
0.01126574283
-0.0007184071434
0.01068281945
4.790705063e-05
0.009877177307
0.0008160851327
0.008890008508
0.001495038523
0.007709643553
0.001998109851
0.006292634025
0.002238219153
0.004579565973
0.002128078393
0.002499683434
0.001582906347
-2.600242849e-05
0.0005448062015
-0.003103559397
-0.0009845079515
-0.006844375578
-0.002828558095
-0.01137444463
-0.004459240618
-0.01663514795
-0.004810551545
-0.02185825398
-0.002944309458
-0.02356691602
-0.01471195708
-0.001465699545
0.006205954052
-0.002379934048
0.01001871524
-0.002373556106
0.01099115579
-0.001603709937
0.01071126514
-0.0003498469398
0.01001187999
0.001163380016
0.009169592586
0.002771551813
0.008269005528
0.004349229788
0.007312330527
0.005791319854
0.006267553495
0.006997723444
0.005086230472
0.00786522284
0.003712066631
0.00828204071
0.002082865619
0.008123609548
0.0001324287821
0.007264312721
-0.002244262545
0.005585057997
-0.005165120838
0.003073749106
-0.008863135726
7.889051468e-05
-0.01364028937
-0.002445802264
-0.01933356117
-0.00260109759
-0.02341162069
-0.01731305467
-0.002365510857
0.008571464984
-0.00296384007
0.01061704438
-0.001922885658
0.00995020084
8.099647839e-05
0.008707383421
0.002534721786
0.007558154794
0.005140050241
0.006564264166
0.007719519263
0.005689536533
0.01015437154
0.004877478286
0.01234932182
0.004072603242
0.01421176152
0.003223790814
0.01564032046
0.002283507738
0.01651739742
0.001205788703
0.01669693447
-4.710824162e-05
0.01602699134
-0.001574319382
0.01430498191
-0.003443111387
0.01133274546
-0.005890899271
0.007055545946
-0.009363089853
0.002201581663
-0.01447959688
-0.001027338829
-0.02018270019
-0.0183403935
-0.002150338501
0.0107218034
-7.199445748e-05
0.008538701236
0.003741879991
0.006136325704
0.007719724559
0.004729539031
0.01156178694
0.003716092495
0.0151408918
0.002985159316
0.01839870935
0.002431718968
0.02130139064
0.001974797
0.02381226263
0.001561731281
0.02587956917
0.001156484321
0.02743041842
0.0007326585294
0.02836459926
0.0002716078989
0.02857551685
-0.0002580257908
0.02788758943
-0.000886391939
0.02609928715
-0.001654809097
0.02290822758
-0.002699839685
0.01790693827
-0.004361800543
0.01076688922
-0.007339547825
0.002912172157
-0.01232798312
-0.01542822134
0.01072180278
0.01926050443
0.02539683031
0.0301263694
0.03384246191
0.03682762123
0.03925934019
0.0412341372
0.04279586849
0.04395235284
0.04468501139
0.04495661931
0.04469859353
0.0438122016
0.04215739251
0.03945755283
0.03509575229
0.02775620446
0.01542822134
)
;

boundaryField
{
    movingWall
    {
        type            calculated;
        value           uniform 0;
    }
    fixedWalls
    {
        type            calculated;
        value           uniform 0;
    }
    frontAndBack
    {
        type            empty;
    }
}


// ************************************************************************* //
