/*--------------------------------*- C++ -*----------------------------------*\
  =========                 |
  \\      /  F ield         | OpenFOAM: The Open Source CFD Toolbox
   \\    /   O peration     | Website:  https://openfoam.org
    \\  /    A nd           | Version:  13
     \\/     M anipulation  |
\*---------------------------------------------------------------------------*/
FoamFile
{
    format      ascii;
    class       volVectorField;
    location    "25";
    object      U_0;
}
// * * * * * * * * * * * * * * * * * * * * * * * * * * * * * * * * * * * * * //

dimensions      [0 1 -1 0 0 0 0];

internalField   nonuniform List<vector> 
400
(
(1.089396279e-05 -3.789560122e-05 0)
(-0.0006661948696 0.0004130179539 -1.54434697e-23)
(-0.002185325085 0.0009203531737 0)
(-0.004047674796 0.001312718685 0)
(-0.005971605422 0.001534992158 6.834461477e-25)
(-0.007762430093 0.001569772858 4.152568323e-24)
(-0.009284122929 0.001423496915 -7.338598328e-24)
(-0.01043547604 0.001119672959 7.566455237e-24)
(-0.01113633597 0.0006960540347 -2.09819929e-25)
(-0.01132665186 0.0002030725659 -3.998924272e-24)
(-0.01097136293 -0.0003002168418 5.808204765e-24)
(-0.01007199494 -0.000747483975 -5.933270477e-23)
(-0.008679641956 -0.001075523313 -6.556539178e-23)
(-0.006902716741 -0.001233008053 -7.788410646e-23)
(-0.00491069778 -0.001192614536 4.576189094e-24)
(-0.002927268414 -0.0009619151516 -4.140659885e-24)
(-0.001205383355 -0.0005912263716 -2.00058398e-22)
(-1.916014034e-05 -0.0001699121346 0)
(0.0005180881024 0.0001720502464 1.51752839e-25)
(0.000222734422 0.0003059556509 -2.655972275e-24)
(-0.0002634028024 0.0008288425901 1.388363999e-25)
(-0.002703230612 0.003383638427 1.554024964e-23)
(-0.006906954838 0.005604187724 1.544471281e-25)
(-0.01195171144 0.007007825733 -8.473280474e-25)
(-0.0171341491 0.007553375243 1.158864345e-24)
(-0.02197420615 0.007293827786 1.303329226e-23)
(-0.02610941756 0.006321592484 1.423632442e-24)
(-0.02926418254 0.004753992673 -7.317276568e-24)
(-0.03122522661 0.002737070693 1.017023516e-23)
(-0.03184055187 0.0004524466919 4.514940237e-24)
(-0.0310262826 -0.001883988401 -6.32387455e-24)
(-0.02879203031 -0.004022785613 2.960780211e-24)
(-0.02527049244 -0.005708062103 3.897507569e-23)
(-0.02073132521 -0.006707115091 -1.956078555e-24)
(-0.01558926218 -0.006853890606 3.757182305e-24)
(-0.01038498966 -0.006097298196 -9.75046111e-23)
(-0.005730281861 -0.004546124655 9.647304257e-23)
(-0.002233447027 -0.002507454617 -3.977102556e-25)
(-0.0001818488883 -0.0005024689707 4.077405698e-25)
(8.342436745e-05 0.0006098491717 0)
(-0.0004188103001 0.002934900968 -2.915596663e-25)
(-0.004647639111 0.00880350602 1.708951415e-23)
(-0.01137133091 0.01323966172 -8.216790622e-24)
(-0.0193262018 0.01579114731 -2.064392805e-25)
(-0.02747257086 0.01652909291 2.02805065e-25)
(-0.03511583815 0.01564359939 7.930021402e-27)
(-0.04171118368 0.01335933343 -1.255041718e-24)
(-0.04683325245 0.009919365012 -4.573621522e-25)
(-0.05014735243 0.005602299203 -1.064931852e-23)
(-0.05140983326 0.0007445655146 0)
(-0.05047561948 -0.004241386331 0)
(-0.04733503289 -0.008886595764 2.673044454e-23)
(-0.04215760819 -0.01268105831 2.814976807e-23)
(-0.0353131045 -0.01513531427 -1.647510545e-24)
(-0.02738909546 -0.01586122932 4.850498246e-23)
(-0.01916955294 -0.01467283262 9.428480776e-23)
(-0.01156068283 -0.01169330813 3.98545103e-23)
(-0.005465361673 -0.007450668018 4.173939235e-25)
(-0.001451121174 -0.002936131566 1.057144177e-25)
(-9.072749464e-05 0.0002257651983 0)
(-0.0005024348971 0.006044996315 -4.255321957e-23)
(-0.006402364904 0.01636979116 -1.699163849e-23)
(-0.01553410674 0.02355795632 8.143674026e-24)
(-0.02627758083 0.02744005368 0)
(-0.03728531673 0.02831945827 0)
(-0.04768768365 0.02658634078 0)
(-0.05679351323 0.02263013119 -4.582693665e-26)
(-0.06405044033 0.01683542751 -2.116525468e-24)
(-0.06900728996 0.009621977801 0)
(-0.07130479612 0.001491312377 1.640401978e-24)
(-0.0707052492 -0.006935818751 2.805914107e-25)
(-0.06712743599 -0.01492916108 -2.813770598e-25)
(-0.06069653419 -0.02166603169 0)
(-0.05180548945 -0.02631473174 4.137761795e-23)
(-0.0411484309 -0.0281594642 -4.686076855e-23)
(-0.02971872026 -0.02677270473 -2.766956173e-23)
(-0.01873661338 -0.02221462092 -3.970754022e-23)
(-0.009487787857 -0.01521890708 7.795462315e-25)
(-0.002976827012 -0.007298186661 9.779237486e-23)
(-0.0002318731304 -0.0008662761322 0)
(-0.0005315789208 0.01009441874 4.276022525e-23)
(-0.007983114978 0.02595065588 4.774458491e-25)
(-0.01939573099 0.03642669641 -4.665411547e-25)
(-0.03282192556 0.04185282469 0)
(-0.04664425308 0.04289251557 7.771599294e-25)
(-0.05984900536 0.04019869052 -7.663843082e-25)
(-0.07162909901 0.03434583802 3.668485648e-23)
(-0.08132333554 0.02585566022 1.844194121e-23)
(-0.08836164934 0.01527266918 6.227693166e-24)
(-0.09225033414 0.003246507208 -1.642313063e-24)
(-0.09259961416 -0.009406844787 0)
(-0.08917170965 -0.02167327423 4.377442619e-25)
(-0.08195642261 -0.03236558533 1.01139086e-23)
(-0.0712660624 -0.04021047558 -4.354084025e-23)
(-0.05781803187 -0.04401849742 1.935873585e-24)
(-0.04278431296 -0.0429466028 4.227209564e-23)
(-0.02775357029 -0.03683222666 -3.857740591e-25)
(-0.01455015966 -0.02652650123 0)
(-0.004859318253 -0.01408432551 5.436187731e-23)
(-0.0003641326183 -0.002847007709 -2.563870776e-22)
(-0.0005271892524 0.0149983899 9.834365877e-23)
(-0.00937739257 0.03738802721 -4.902318458e-25)
(-0.02288055322 0.05169925675 0)
(-0.03882832083 0.05893855472 0)
(-0.05538363125 0.06025256103 -8.728191712e-23)
(-0.07142509601 0.05661622922 -8.495132472e-23)
(-0.08606227296 0.04879954395 -4.063363171e-23)
(-0.09854616038 0.03743845756 -1.502387156e-23)
(-0.1081895838 0.02315937352 -5.359015019e-24)
(-0.1143394682 0.006710107727 -8.168946417e-24)
(-0.1163997462 -0.01093165425 6.594567995e-24)
(-0.1138891728 -0.02848746981 8.814489028e-24)
(-0.1065445988 -0.04436795609 -1.892093187e-23)
(-0.09446454447 -0.05675054704 4.556093089e-24)
(-0.07826577375 -0.06378019171 0)
(-0.05922690563 -0.06393244511 -1.578116263e-23)
(-0.03933849538 -0.05653619621 -2.262015813e-26)
(-0.02114119058 -0.04235683041 0)
(-0.007318463219 -0.02398174482 -1.519485364e-22)
(-0.0005215920158 -0.005925500957 6.053793659e-22)
(-0.000499058943 0.02064455119 -9.767385341e-23)
(-0.01052897816 0.05045150383 2.831176605e-22)
(-0.02582828961 0.06912127616 1.52645263e-22)
(-0.04401923912 0.07848838613 3.618010133e-24)
(-0.0631044009 0.08029071086 -7.318811445e-23)
(-0.08190029591 0.07587689529 9.039324022e-23)
(-0.09947324847 0.06621417094 -3.588851529e-24)
(-0.1150178757 0.05201519874 -1.728412876e-24)
(-0.1277467575 0.03392291765 2.523013403e-24)
(-0.1368419826 0.01270276884 7.376967411e-24)
(-0.1414658398 -0.0105863391 -6.494673765e-24)
(-0.140819848 -0.03445784578 -9.774696869e-24)
(-0.1342700379 -0.05692460795 -3.261645795e-23)
(-0.1215410326 -0.07552961112 -3.653117032e-23)
(-0.1029639746 -0.08753893865 5.628919088e-25)
(-0.07976120044 -0.09038867436 0)
(-0.05426514636 -0.08244231114 0)
(-0.02987068718 -0.06397540792 -2.904188614e-24)
(-0.01066251656 -0.03798694892 2.968596254e-24)
(-0.0007350616731 -0.01050070114 1.027814024e-22)
(-0.0004479067816 0.02687102776 0)
(-0.01134876304 0.06480405516 2.001870176e-22)
(-0.02801483693 0.08829151298 8.961722802e-23)
(-0.04799661252 0.100118436 0)
(-0.06920326016 0.102702781 1.569450511e-22)
(-0.09044024409 0.09781153721 0)
(-0.1107790687 0.08660772319 -1.428096232e-22)
(-0.1294048081 0.06983734594 6.513917754e-24)
(-0.1454722814 0.04808142465 0)
(-0.1580301434 0.0220179419 0)
(-0.1660083108 -0.007332827294 -1.373932565e-24)
(-0.1682622786 -0.0383856878 -9.311965507e-25)
(-0.1637019009 -0.06883615723 1.491348943e-22)
(-0.1515167682 -0.09557854097 -4.704412967e-23)
(-0.1315099566 -0.1148253822 -2.559068659e-24)
(-0.1045568492 -0.1225660015 1.5328674e-24)
(-0.0730915669 -0.1155480427 -1.557047293e-24)
(-0.04134910609 -0.0928283857 0)
(-0.01525187892 -0.05740612369 3.202776016e-24)
(-0.001044269712 -0.01714675107 -1.012642936e-21)
(-0.0003744737902 0.0334613256 0)
(-0.01174971449 0.07998513388 -1.127900148e-22)
(-0.02920618168 0.108633746 -6.190189038e-22)
(-0.05031589156 0.1232176064 -3.754784635e-22)
(-0.07296094468 0.1269041309 0)
(-0.09598675562 0.1219207066 4.118849842e-22)
(-0.1185239829 0.1096310697 1.260666958e-22)
(-0.1398108777 0.09077994826 -5.580816886e-24)
(-0.1590181192 0.06581281835 5.553194841e-24)
(-0.1751419171 0.03520911458 0)
(-0.1869517804 -0.0001950875455 2.911646368e-23)
(-0.193013119 -0.03889465663 4.694716068e-24)
(-0.1917770239 -0.07843496847 -1.076464091e-22)
(-0.1817837654 -0.1151818525 8.000932584e-23)
(-0.1620537831 -0.1442548291 -2.419021453e-22)
(-0.1327035025 -0.1598497354 0)
(-0.09577688623 -0.1563066537 0)
(-0.05601511743 -0.1302944941 0)
(-0.02147809704 -0.08380917086 0)
(-0.001500338078 -0.02665452382 5.570740945e-22)
(-0.0002874158717 0.04015890763 0)
(-0.01169342516 0.095431702 -3.492525475e-22)
(-0.02924386956 0.1294015314 8.931721848e-22)
(-0.05060851531 0.1469235994 3.616674019e-22)
(-0.0736994023 0.1519687952 0)
(-0.09744965645 0.1472705103 -3.861985796e-22)
(-0.121104774 0.134415067 -3.174006912e-23)
(-0.1440300089 0.1141365885 3.332708668e-22)
(-0.1655116891 0.08669881131 1.769263731e-22)
(-0.1846221348 0.05229147177 -4.059676059e-23)
(-0.2001298408 0.01141881343 1.656753858e-23)
(-0.2104595208 -0.03471131557 -8.263947454e-24)
(-0.2137181735 -0.08376162322 3.371406219e-22)
(-0.2078189486 -0.1318707652 0)
(-0.1908213969 -0.173270176 2.420190128e-22)
(-0.1616313785 -0.2002537125 5.772554404e-24)
(-0.1211645006 -0.2040068588 -5.85864028e-24)
(-0.0738487229 -0.1772076216 1.547722637e-22)
(-0.02971734222 -0.1188614125 -5.433271433e-24)
(-0.00217949248 -0.0400530701 0)
(-0.0002117637688 0.04671449084 0)
(-0.01125005006 0.1105452647 0)
(-0.02815620433 0.1497294545 -5.02220761e-22)
(-0.04874458679 0.1701451924 -1.880809758e-23)
(-0.07100045968 0.1766194049 2.038166316e-23)
(-0.09399392248 0.1724471776 -2.014101319e-23)
(-0.1171427023 0.1594828512 -2.316636529e-23)
(-0.1400171538 0.1384777106 -3.02946148e-22)
(-0.1621320843 0.1095148067 6.698412566e-23)
(-0.1827951283 0.07245210843 4.512639438e-23)
(-0.2009828121 0.02735091899 -4.577167538e-23)
(-0.2152262827 -0.025084118 0)
(-0.2235554168 -0.08297962088 -7.8376723e-23)
(-0.2234622887 -0.1427210012 0)
(-0.2120668552 -0.1981767323 -3.739099565e-22)
(-0.1867422514 -0.2400716719 5.244107738e-22)
(-0.1464426524 -0.2560717274 0)
(-0.09394474614 -0.2331160589 -1.493290738e-22)
(-0.04021951917 -0.163957989 1.936823301e-22)
(-0.0032010443 -0.05860942872 -3.410805468e-22)
(-0.0002015999622 0.05297402671 0)
(-0.01067288128 0.1248128121 9.182173305e-22)
(-0.02628494136 0.1687365058 -2.440483668e-23)
(-0.04501170043 0.1916390105 9.192635029e-22)
(-0.0649466979 0.1992858571 -2.51187387e-23)
(-0.08536709629 0.1956050434 2.838597204e-23)
(-0.1059314804 0.1827845575 -2.812685518e-23)
(-0.1264934685 0.1616557021 -1.660775703e-23)
(-0.1469008899 0.1321751132 -5.259787949e-22)
(-0.166847169 0.09389680816 -8.905881679e-24)
(-0.1857317543 0.04640739956 9.659417262e-24)
(-0.2024796364 -0.01023512742 3.312851627e-22)
(-0.2154168092 -0.07499459815 -5.820273674e-22)
(-0.222022037 -0.1450268736 0)
(-0.2188038619 -0.2146711881 8.886443381e-22)
(-0.2016259262 -0.27399636 -4.940091428e-22)
(-0.1668636767 -0.3075757784 -1.571967616e-23)
(-0.1140215596 -0.2953761823 0)
(-0.05288446076 -0.2195765297 -1.889469217e-22)
(-0.004749134859 -0.08377132539 3.359875781e-22)
(-0.0003642686807 0.05902156268 1.550900361e-23)
(-0.01049621449 0.1379841056 -8.76353319e-22)
(-0.02441487242 0.1856748693 -1.1569854e-21)
(-0.04026868643 0.2101323605 -8.628327143e-22)
(-0.05630914141 0.2182290064 0)
(-0.07215076467 0.2146139882 3.513549451e-23)
(-0.08779473682 0.2018754099 -7.29433816e-23)
(-0.1034591001 0.1809982374 5.867465528e-23)
(-0.1194014811 0.1518988869 3.021136709e-22)
(-0.13579647 0.1139155912 -1.128119562e-23)
(-0.152611686 0.06621594039 0)
(-0.1694555947 0.008179789633 -3.603680203e-22)
(-0.1852793524 -0.06015662811 7.515222084e-22)
(-0.1980477904 -0.1372709759 8.831233635e-22)
(-0.2043570037 -0.2189220789 -5.296184048e-22)
(-0.199099414 -0.2959668327 5.162298937e-22)
(-0.1760614112 -0.3514025381 1.078001182e-23)
(-0.1300892863 -0.3584104448 -1.095312502e-23)
(-0.06688791373 -0.2843238994 -8.221952162e-23)
(-0.007083279939 -0.1169948249 0)
(-0.0009096541514 0.06539912031 -1.911372666e-23)
(-0.01167657078 0.1502782184 -1.326894463e-21)
(-0.0238902331 0.2000611236 1.094168161e-21)
(-0.03601556958 0.2244162729 6.734559897e-22)
(-0.04657592791 0.2316535743 6.014295972e-22)
(-0.0557738049 0.2272348987 6.643577223e-22)
(-0.06411635709 0.2141741979 -4.458406098e-23)
(-0.07227990754 0.1936475369 -3.461146676e-22)
(-0.08097432234 0.1656023201 2.152048418e-22)
(-0.09087671377 0.1292714763 0)
(-0.1025596224 0.08353257317 0)
(-0.1163670448 0.02720257059 2.655285962e-22)
(-0.1321635828 -0.04061716694 8.194565877e-23)
(-0.1489294742 -0.1200097155 -2.821400919e-22)
(-0.1641320772 -0.2089268132 -5.411016771e-23)
(-0.1727906084 -0.3006958219 1.30198501e-22)
(-0.1670330326 -0.379329233 -3.400163958e-22)
(-0.1365301846 -0.4136413915 -1.596898019e-23)
(-0.08018270262 -0.3538292395 8.210715774e-23)
(-0.01050761122 -0.1594114209 -6.032706709e-22)
(-0.002260574987 0.07348794312 0)
(-0.01580432863 0.1626495666 2.145766901e-21)
(-0.02665214848 0.2117865933 0)
(-0.0342260975 0.2333902422 -1.351740111e-21)
(-0.03759757561 0.2377722785 6.184279172e-23)
(-0.03800118975 0.2312515933 -6.192738763e-22)
(-0.03668756221 0.2171871661 -4.756043183e-22)
(-0.03489567015 0.1968919739 8.300822876e-22)
(-0.03379393389 0.1703339887 -1.885597402e-22)
(-0.03450440177 0.1367229579 0)
(-0.03812131374 0.09479844604 0)
(-0.04565533544 0.04304513921 2.410736332e-23)
(-0.05791317221 -0.0201352651 -6.006966489e-22)
(-0.07515071036 -0.09620393256 -4.309396621e-22)
(-0.09645592135 -0.1855531295 4.637718658e-22)
(-0.1183496963 -0.2853543379 -6.488381161e-22)
(-0.133274077 -0.3838361021 9.11906031e-23)
(-0.1265365959 -0.4504331739 2.940550207e-23)
(-0.08899205797 -0.4198509806 5.660666566e-22)
(-0.01526920849 -0.2111704998 6.021338421e-22)
(-0.005180965215 0.08598001089 0)
(-0.02525629775 0.1766274293 1.465599124e-22)
(-0.03483590694 0.2205933832 -4.91694067e-23)
(-0.03640306886 0.235482556 7.642579569e-22)
(-0.03018877927 0.2343372565 -7.005041616e-22)
(-0.01917059374 0.224157423 4.746258892e-23)
(-0.005620517907 0.208350425 -1.018582388e-22)
(0.008563869674 0.1881229464 -3.389721962e-22)
(0.02179293904 0.1633909859 2.062737123e-22)
(0.03262196234 0.1333250515 0)
(0.03957895423 0.09664235425 0)
(0.04116484416 0.05174250457 -2.902568394e-22)
(0.03577993388 -0.003253296039 0)
(0.02197738681 -0.07058154574 -5.512053805e-22)
(-0.001268785821 -0.1525716846 -1.492057169e-23)
(-0.033108015 -0.2505933279 2.559604928e-23)
(-0.06909500715 -0.3599325537 2.202894442e-22)
(-0.09228000431 -0.4575408942 4.789413409e-24)
(-0.0871816047 -0.4698111959 -5.789651991e-22)
(-0.02103134508 -0.2698960906 0)
(-0.01111635012 0.1085974572 0)
(-0.04248966457 0.1947143697 -8.848163327e-22)
(-0.04795688962 0.2258178977 -5.410883953e-22)
(-0.03919802846 0.228211318 4.543670082e-22)
(-0.01878199502 0.2182304173 -1.710057165e-24)
(0.00765975675 0.2028198705 -4.560869664e-23)
(0.03667477061 0.1847603572 5.696431444e-22)
(0.06582446908 0.1647108805 -2.76677616e-23)
(0.09326568545 0.1423126514 -2.069694869e-22)
(0.1173836765 0.1166280402 3.142098967e-23)
(0.1365409968 0.08641255387 -3.425806587e-23)
(0.1489621807 0.05017817405 -3.690495191e-23)
(0.1525233493 0.006160801666 3.205554031e-22)
(0.14493302 -0.04795970241 6.119459164e-22)
(0.1235128022 -0.1153039497 -5.101045566e-22)
(0.08633271572 -0.200418512 -1.615985127e-22)
(0.03198860401 -0.306779845 1.531365712e-22)
(-0.02362286758 -0.4239828956 7.293754822e-23)
(-0.06492479613 -0.4871603478 1.913303594e-21)
(-0.02509980854 -0.3291537463 2.955005029e-21)
(-0.02004678094 0.1460729578 -4.390116039e-23)
(-0.06416435884 0.2112954485 4.417288217e-23)
(-0.05070325984 0.2177293245 1.000163304e-21)
(-0.01934276176 0.201466782 -8.268489428e-24)
(0.02414197364 0.1809061703 0)
(0.07153772677 0.1606919344 4.363551637e-23)
(0.1190662253 0.1416484306 -2.273758216e-22)
(0.1644722269 0.1233174813 -9.027572733e-23)
(0.2062204642 0.1048115242 3.680580896e-23)
(0.2429597493 0.08507167407 -1.701594823e-23)
(0.2732165032 0.06296214536 3.429859764e-23)
(0.2952498174 0.03726387106 -6.592490804e-23)
(0.3066938042 0.006536113559 -9.303683383e-23)
(0.3049710473 -0.03087669324 1.517006109e-22)
(0.2863913601 -0.07786207377 0)
(0.2470550042 -0.1399294593 1.505530764e-22)
(0.1810907631 -0.2266297123 2.560015387e-22)
(0.09604341149 -0.3443891722 0)
(-0.006698173773 -0.4552206779 -3.675653542e-21)
(-0.01922417329 -0.3777534405 -2.892634e-21)
(-0.02591944738 0.2276831086 -9.514146382e-22)
(-0.03998313879 0.2238218088 -1.388953293e-22)
(0.03656125322 0.1810583976 -2.335520409e-22)
(0.1090497071 0.1451054756 -1.193707053e-22)
(0.1817178906 0.1172439245 -4.295702871e-23)
(0.2490071735 0.09627841419 9.782762911e-23)
(0.3100311857 0.08002453849 -1.408528838e-22)
(0.3646180264 0.06656777451 1.297119698e-22)
(0.4126221237 0.05449164887 -8.619763278e-23)
(0.4536219035 0.04270905034 1.13218256e-25)
(0.4867849392 0.03032328808 1.527693005e-23)
(0.5107425464 0.01652945921 7.996970583e-23)
(0.5236576089 0.0005369831203 -1.811076601e-22)
(0.5231781728 -0.01863327647 -1.61710813e-22)
(0.5052311455 -0.04286442146 -4.262746273e-23)
(0.4658706663 -0.07633208076 0)
(0.3952690401 -0.1286088659 -1.846509039e-22)
(0.2916066457 -0.220846789 8.148793975e-22)
(0.1197452324 -0.3525016711 1.631606775e-21)
(0.02670540226 -0.3775497564 2.17265841e-21)
(0.2142895149 0.1347447894 9.864924755e-22)
(0.2776313344 0.09870512376 0)
(0.4316594723 0.05810418903 -2.594269268e-22)
(0.5304750363 0.03846263533 -1.741619922e-22)
(0.6016963928 0.02623413557 0)
(0.6571193624 0.01831916439 -6.008829637e-23)
(0.7015204951 0.01313594816 6.377696373e-23)
(0.7376031362 0.009542093342 -1.800067136e-23)
(0.7669355983 0.006804467844 2.885836974e-23)
(0.7902094281 0.004464785298 2.314935284e-23)
(0.8074543836 0.002221390708 0)
(0.8182612287 -0.0001499859647 -2.872941803e-23)
(0.821649326 -0.002723754839 0)
(0.8162390451 -0.00571259819 2.738033095e-23)
(0.7991331553 -0.009611341351 1.421606698e-23)
(0.7679986184 -0.01500253993 -5.799478196e-23)
(0.7106556145 -0.02502521794 -2.535679187e-22)
(0.623518423 -0.04204287573 -6.918125633e-22)
(0.4230090992 -0.09182970325 0)
(0.2705674622 -0.1524021943 -2.119486214e-21)
)
;

boundaryField
{
    movingWall
    {
        type            calculated;
        value           uniform (1 0 0);
    }
    fixedWalls
    {
        type            calculated;
        value           uniform (0 0 0);
    }
    frontAndBack
    {
        type            empty;
    }
}


// ************************************************************************* //
