/*--------------------------------*- C++ -*----------------------------------*\
  =========                 |
  \\      /  F ield         | OpenFOAM: The Open Source CFD Toolbox
   \\    /   O peration     | Website:  https://openfoam.org
    \\  /    A nd           | Version:  13
     \\/     M anipulation  |
\*---------------------------------------------------------------------------*/
FoamFile
{
    format      ascii;
    class       volVectorField;
    location    "25";
    object      U_0;
}
// * * * * * * * * * * * * * * * * * * * * * * * * * * * * * * * * * * * * * //

dimensions      [0 1 -1 0 0 0 0];

internalField   nonuniform List<vector> 
400
(
(0.0001662705384 -0.0001696688617 0)
(-0.0001581127942 4.237828006e-05 0)
(-0.001511293151 0.0002717291708 0)
(-0.003681317077 0.0004180263986 0)
(-0.006335709859 0.0004946364886 0)
(-0.009183885031 0.0005220323514 0)
(-0.01198535447 0.000509974857 0)
(-0.01451754667 0.0004581020334 0)
(-0.01655344898 0.0003607003121 0)
(-0.01786131104 0.0002132576454 0)
(-0.01822904245 1.91932235e-05 0)
(-0.01750952197 -0.0002049591538 0)
(-0.01567599594 -0.000427247263 0)
(-0.01287059673 -0.0006038075055 0)
(-0.00942527326 -0.0006884647102 0)
(-0.005835663604 -0.0006472418142 0)
(-0.002678735876 -0.0004725946155 0)
(-0.0004775843955 -0.0001920570957 0)
(0.0004785008232 0.000117142428 0)
(0.0002904098251 0.0002837762653 0)
(-5.690695621e-05 0.0001564038655 0)
(-0.002004466474 0.001874474522 0)
(-0.00618323592 0.003623612515 0)
(-0.01207443798 0.004829799437 0)
(-0.01895794089 0.005460779791 0)
(-0.02618946822 0.00559015748 0)
(-0.03319019016 0.005269212739 0)
(-0.03940700171 0.004507673947 0)
(-0.04429124178 0.003298784265 0)
(-0.04731450621 0.001661106031 0)
(-0.04802660956 -0.0003199615674 0)
(-0.04614628446 -0.002464403223 0)
(-0.04166421813 -0.004494842324 0)
(-0.03492790815 -0.006068942446 0)
(-0.02667256587 -0.00684956528 0)
(-0.0179648653 -0.006603432042 0)
(-0.01003824076 -0.005303233284 0)
(-0.004025778337 -0.003203439311 0)
(-0.0006259889211 -0.0008972441393 0)
(0.0001989861803 0.0005261190411 0)
(-0.0003479560641 0.001673280737 0)
(-0.004283238876 0.006216379552 0)
(-0.01134075635 0.01024196778 0)
(-0.02063350429 0.01296089337 0)
(-0.03112596696 0.01432700186 0)
(-0.04194482089 0.01446363744 0)
(-0.05228968933 0.01346168415 0)
(-0.06138530603 0.01134857069 0)
(-0.06847069376 0.00813987869 0)
(-0.07283023842 0.003923155149 0)
(-0.0738690125 -0.001061536055 0)
(-0.07122161345 -0.006371211655 0)
(-0.0648732092 -0.01136167786 0)
(-0.0552632311 -0.01525804547 0)
(-0.04333439195 -0.01730179485 0)
(-0.03048433086 -0.01696062438 0)
(-0.0183810991 -0.01415525372 0)
(-0.008637992431 -0.00943282 0)
(-0.002416170878 -0.004046985157 0)
(1.598248441e-05 -6.409035472e-05 0)
(-0.0006108054276 0.004410439963 0)
(-0.006474742632 0.01308741222 0)
(-0.01629131041 0.02001687047 0)
(-0.0287396924 0.02452118007 0)
(-0.04246670563 0.02666000316 0)
(-0.05642689835 0.02664424416 0)
(-0.06968067432 0.0246145431 0)
(-0.08131741385 0.02062223495 0)
(-0.09044232259 0.01471765783 0)
(-0.09620966994 0.007079438909 0)
(-0.0978999514 -0.001864983878 0)
(-0.09503236092 -0.01136437102 0)
(-0.08749797911 -0.02034310856 0)
(-0.0756923287 -0.02750181688 0)
(-0.06061272451 -0.0315375184 0)
(-0.04386604165 -0.03147873954 0)
(-0.02751763739 -0.02707723262 0)
(-0.01374291952 -0.01913182402 0)
(-0.004357637213 -0.009608148463 0)
(-0.0001415381386 -0.00159824222 0)
(-0.0008372446035 0.008258131864 0)
(-0.008442162725 0.02227943315 0)
(-0.02077746146 0.03265042449 0)
(-0.03609598748 0.03911611383 0)
(-0.052744682 0.04200435231 0)
(-0.06954750296 0.04168485674 0)
(-0.0854872896 0.03837234439 0)
(-0.09958520117 0.0321456681 0)
(-0.110869121 0.02308413907 0)
(-0.1183927305 0.01144523157 0)
(-0.1212994875 -0.002172626648 0)
(-0.1189283224 -0.01672195998 0)
(-0.110958837 -0.03068355837 0)
(-0.09758794291 -0.0421698937 0)
(-0.07970999615 -0.04919419608 0)
(-0.05903542065 -0.05013247125 0)
(-0.03803701071 -0.04433061359 0)
(-0.0196173846 -0.03267662948 0)
(-0.006526392125 -0.01784929354 0)
(-0.000285829682 -0.004127001768 0)
(-0.001025637116 0.01307255958 0)
(-0.01012401609 0.03352375847 0)
(-0.02464662792 0.04783183963 0)
(-0.04247618664 0.05642548724 0)
(-0.06170490591 0.06006444578 0)
(-0.08107047064 0.05936369467 0)
(-0.09953218713 0.05464592473 0)
(-0.1161004884 0.0460175972 0)
(-0.1297740016 0.03356206382 0)
(-0.1395295416 0.01756877455 0)
(-0.1443589349 -0.001256457088 0)
(-0.143356273 -0.02163321014 0)
(-0.1358703091 -0.04163440864 0)
(-0.1217312433 -0.05874443076 0)
(-0.1015379175 -0.07013202841 0)
(-0.07694240376 -0.07321933968 0)
(-0.05078185886 -0.06655659086 0)
(-0.02685103033 -0.05079858223 0)
(-0.009204236139 -0.02928696256 0)
(-0.0004585210396 -0.007796588059 0)
(-0.001170455244 0.01868824337 0)
(-0.0114614886 0.04648695087 0)
(-0.02775172819 0.06517219192 0)
(-0.04763414389 0.07606645396 0)
(-0.06900711669 0.08050931301 0)
(-0.09056967359 0.07944977221 0)
(-0.1113092068 0.07335720382 0)
(-0.1302812967 0.06236344266 0)
(-0.1465076624 0.04651679492 0)
(-0.1589260407 0.02606437271 0)
(-0.1663856344 0.001715682389 0)
(-0.1677045456 -0.02513283548 0)
(-0.1618114286 -0.05223791497 0)
(-0.1480064192 -0.07646819965 0)
(-0.1263589708 -0.09400547628 0)
(-0.09819665277 -0.100956736 0)
(-0.0665321492 -0.09451189731 0)
(-0.03611742097 -0.0745179014 0)
(-0.01275255925 -0.04476570777 0)
(-0.0007096869518 -0.01293138847 0)
(-0.001264348492 0.02490862857 0)
(-0.01239248966 0.060760425 0)
(-0.02993894721 0.0841788532 0)
(-0.05129370017 0.09753496629 0)
(-0.07422505775 0.1028743358 0)
(-0.09743924464 0.1015663531 0)
(-0.1200010796 0.09427048764 0)
(-0.1410692501 0.08114475623 0)
(-0.1597531017 0.06215964417 0)
(-0.175016599 0.03743193628 0)
(-0.1856241918 0.00754367358 0)
(-0.1901478015 -0.02615621411 0)
(-0.1870714424 -0.06127165759 0)
(-0.1750489738 -0.09416181687 0)
(-0.1533719926 -0.119968518 0)
(-0.1226641074 -0.1331404368 0)
(-0.08570249415 -0.1287896081 0)
(-0.04801989017 -0.1050155528 0)
(-0.01757089674 -0.06546014594 0)
(-0.001101022356 -0.0200596266 0)
(-0.00130276513 0.03150600446 0)
(-0.01287174866 0.07586233673 0)
(-0.03108069684 0.1042476628 0)
(-0.05319486005 0.1201737181 0)
(-0.0769085472 0.1264959125 0)
(-0.1009746412 0.1250887196 0)
(-0.1245809239 0.1168534648 0)
(-0.1470491908 0.1019868939 0)
(-0.167654825 0.08034997583 0)
(-0.1854863014 0.05184739744 0)
(-0.1993371986 0.01679616893 0)
(-0.2076476425 -0.02369543898 0)
(-0.2085358288 -0.06731845423 0)
(-0.1999905369 -0.1101598637 0)
(-0.1803288721 -0.1464451128 0)
(-0.1490288445 -0.1687719017 0)
(-0.1079771132 -0.1694167411 0)
(-0.06290883907 -0.1433673085 0)
(-0.0240711397 -0.09280617594 0)
(-0.00171424592 -0.02992975668 0)
(-0.001291043008 0.03823900481 0)
(-0.01290786032 0.09126271776 0)
(-0.03114043869 0.1246752499 0)
(-0.05318473036 0.1431596711 0)
(-0.07670285535 0.1504689339 0)
(-0.1005277028 0.1490696184 0)
(-0.1240123314 0.1401692542 0)
(-0.1467015566 0.1240360481 0)
(-0.1681234599 0.1004161052 0)
(-0.1876139207 0.06894931157 0)
(-0.2041598369 0.02957290666 0)
(-0.2162676215 -0.01704260492 0)
(-0.2218908198 -0.06896959756 0)
(-0.2184863501 -0.1224030449 0)
(-0.2033453757 -0.1710252872 0)
(-0.174416872 -0.2057070452 0)
(-0.1318815698 -0.2153270946 0)
(-0.08060505205 -0.1900829034 0)
(-0.03262550678 -0.1283246489 0)
(-0.002662333081 -0.04352338436 0)
(-0.001254343029 0.04489538741 0)
(-0.01261482027 0.1064440082 0)
(-0.0302610632 0.144703006 0)
(-0.051339324 0.1655219607 0)
(-0.07350743874 0.1736406993 0)
(-0.09571545777 0.172213009 0)
(-0.1175277331 0.1628301947 0)
(-0.1387707743 0.1458874875 0)
(-0.1593091192 0.1210463165 0)
(-0.1788519598 0.08767661715 0)
(-0.1967645605 0.04527362046 0)
(-0.2118720494 -0.006087263835 0)
(-0.2222730169 -0.06516597305 0)
(-0.2252038977 -0.1287468867 0)
(-0.2171169588 -0.1906115878 0)
(-0.1942778714 -0.2404894054 0)
(-0.1543984218 -0.2638277154 0)
(-0.1000082092 -0.2444390888 0)
(-0.04343993588 -0.1732680601 0)
(-0.004099965774 -0.06205156832 0)
(-0.001251638554 0.05136920522 0)
(-0.01227838658 0.1210058021 0)
(-0.02886755743 0.1635976111 0)
(-0.04809334492 0.1861941195 0)
(-0.06763626996 0.1946489978 0)
(-0.08662900807 0.1929117222 0)
(-0.1049135868 0.1830400413 0)
(-0.1226586208 0.1656251391 0)
(-0.140133248 0.1403049906 0)
(-0.1575186473 0.1062269497 0)
(-0.1747159535 0.06245461626 0)
(-0.1911200169 0.008394719351 0)
(-0.205329455 -0.05563115706 0)
(-0.2148202182 -0.1274965942 0)
(-0.2156850352 -0.2019165383 0)
(-0.2027495527 -0.2685709389 0)
(-0.1708499699 -0.3102976345 0)
(-0.1186723405 -0.3037040123 0)
(-0.05630052376 -0.2280025342 0)
(-0.006226757769 -0.08689944436 0)
(-0.001398094261 0.05778648648 0)
(-0.01244326336 0.1348167911 0)
(-0.02777324748 0.1807575868 0)
(-0.04434258169 0.2040850983 0)
(-0.05991735505 0.2119906038 0)
(-0.07395012387 0.2093401822 0)
(-0.086673564 0.1987228908 0)
(-0.09866836926 0.1809819547 0)
(-0.1106520201 0.1558011344 0)
(-0.1233228061 0.1221898352 0)
(-0.1371989406 0.07886445749 0)
(-0.1524057248 0.0246064395 0)
(-0.1683564447 -0.04126129852 0)
(-0.1832880396 -0.1180658365 0)
(-0.1936522835 -0.2022966 0)
(-0.1935748118 -0.2850581621 0)
(-0.1752688683 -0.3484204441 0)
(-0.1325566287 -0.3625333878 0)
(-0.07016962272 -0.2910809664 0)
(-0.009271231607 -0.1194411171 0)
(-0.001906118883 0.06470272658 0)
(-0.01403424503 0.1482070812 0)
(-0.02826926391 0.195809666 0)
(-0.04145428048 0.2181232754 0)
(-0.05162464884 0.2240743201 0)
(-0.05882740936 0.2195557465 0)
(-0.0638738433 0.2076898183 0)
(-0.06784346612 0.1895721919 0)
(-0.07191834295 0.1649708801 0)
(-0.07729283258 0.1328443524 0)
(-0.08507927138 0.09169463016 0)
(-0.09616000792 0.03983679452 0)
(-0.1109225695 -0.02428639187 0)
(-0.1287843968 -0.1015223891 0)
(-0.1473690908 -0.1907130538 0)
(-0.1612858302 -0.2859148817 0)
(-0.1612275549 -0.3711449245 0)
(-0.1361444012 -0.4129670377 0)
(-0.08267661895 -0.3581524445 0)
(-0.01340561106 -0.1605701181 0)
(-0.003144567214 0.07339522608 0)
(-0.0185025364 0.1621667289 0)
(-0.03210620337 0.2086096061 0)
(-0.04099953259 0.2271795152 0)
(-0.0439812885 0.2291691298 0)
(-0.04219657809 0.2215167915 0)
(-0.03731255114 0.2077405595 0)
(-0.03100511092 0.1890800834 0)
(-0.02490789793 0.1653540789 0)
(-0.02063172505 0.1355187088 0)
(-0.01976833479 0.09799667064 0)
(-0.02384326949 0.05086539219 0)
(-0.03417283195 -0.00799946717 0)
(-0.05152054578 -0.08066725538 0)
(-0.0753133807 -0.1683724764 0)
(-0.1020036306 -0.2692076177 0)
(-0.122688016 -0.3721959179 0)
(-0.1228240614 -0.4453300354 0)
(-0.08958570551 -0.4212505457 0)
(-0.0184329284 -0.2098867624 0)
(-0.005624754106 0.08635443555 0)
(-0.02780799742 0.1784331558 0)
(-0.04093184618 0.2188764599 0)
(-0.04351688993 0.2296038791 0)
(-0.03638621869 0.2250275369 0)
(-0.02263726989 0.2128324909 0)
(-0.005121571852 0.1965350167 0)
(0.01382967639 0.1772488594 0)
(0.03219923303 0.1547116173 0)
(0.04809632131 0.1278644039 0)
(0.05962843583 0.09515100897 0)
(0.06483510583 0.05464253915 0)
(0.06168930111 0.004052560446 0)
(0.04823411609 -0.05931349774 0)
(0.02307142057 -0.1384659364 0)
(-0.01312810335 -0.2356493611 0)
(-0.05422808864 -0.3474066235 0)
(-0.08510143208 -0.4497104063 0)
(-0.08431215594 -0.469172028 0)
(-0.02314597252 -0.2652863145 0)
(-0.009901633765 0.1088396474 0)
(-0.04346212401 0.1991821063 0)
(-0.05339054882 0.2247167714 0)
(-0.04379975375 0.2217459095 0)
(-0.0207348726 0.2077679522 0)
(0.009632003185 0.1900172397 0)
(0.04319736618 0.1711544132 0)
(0.07717157313 0.1516915285 0)
(0.1094072506 0.1310541061 0)
(0.1379960955 0.1081071751 0)
(0.1610081728 0.0813822411 0)
(0.17632543 0.04913566562 0)
(0.1815276248 0.009293522069 0)
(0.1738562389 -0.04078478428 0)
(0.1503246939 -0.1047760427 0)
(0.1085510122 -0.1879096842 0)
(0.04988650316 -0.2950359771 0)
(-0.01426279179 -0.4168386979 0)
(-0.05766316482 -0.4879399391 0)
(-0.02476327609 -0.3231225794 0)
(-0.01774564704 0.1519490066 0)
(-0.06142989402 0.2237073845 0)
(-0.05281199164 0.2173304451 0)
(-0.01550409922 0.1942062226 0)
(0.03358433783 0.1700605259 0)
(0.08609477203 0.1479878427 0)
(0.138127007 0.1283778483 0)
(0.1874568668 0.1106085703 0)
(0.2325281383 0.09359570837 0)
(0.2719496375 0.0761117313 0)
(0.3041783479 0.05686597067 0)
(0.3273192131 0.03446760106 0)
(0.3389549834 0.007346381041 0)
(0.3360375105 -0.0265191502 0)
(0.3147043352 -0.0702868858 0)
(0.2703018542 -0.1298547258 0)
(0.1985888853 -0.2160615083 0)
(0.1018515635 -0.3380603629 0)
(0.003670872566 -0.456507082 0)
(-0.01613552615 -0.368895737 0)
(-0.02411852423 0.2085037092 0)
(-0.03774262953 0.2305989794 0)
(0.03736369745 0.176564962 0)
(0.1248790505 0.1366254296 0)
(0.2052138837 0.1086327 0)
(0.2768684942 0.0876927419 0)
(0.3405849728 0.07160923299 0)
(0.3967311562 0.05877582908 0)
(0.4454240889 0.0477844488 0)
(0.4864401933 0.0374890136 0)
(0.5191765847 0.02689626248 0)
(0.5423740436 0.0151184721 0)
(0.5540897082 0.001250730341 0)
(0.5516088836 -0.01579629378 0)
(0.5310480672 -0.03786136266 0)
(0.4868651963 -0.06886158586 0)
(0.4105690201 -0.118978313 0)
(0.2904649498 -0.2093409597 0)
(0.1328924207 -0.3383023975 0)
(0.03856531918 -0.3402734201 0)
(0.2419467523 0.1092057786 0)
(0.3136724969 0.09722222729 0)
(0.4446316446 0.05701562236 0)
(0.5498854322 0.03509839416 0)
(0.6241094124 0.02368574644 0)
(0.6793456128 0.01663468605 0)
(0.7228966812 0.01190978349 0)
(0.7579311567 0.008650458756 0)
(0.7860453526 0.006253347462 0)
(0.8080606428 0.004275225879 0)
(0.8241590598 0.002406257637 0)
(0.8339477858 0.0004340628307 0)
(0.8365302139 -0.00182138932 0)
(0.8304452263 -0.004517450977 0)
(0.8133340948 -0.007981183644 0)
(0.7812528958 -0.01288908864 0)
(0.7258602968 -0.02129308679 0)
(0.6299864191 -0.03817635002 0)
(0.4592939834 -0.08566950461 0)
(0.3048769955 -0.1257178026 0)
)
;

boundaryField
{
    movingWall
    {
        type            calculated;
        value           uniform (1 0 0);
    }
    fixedWalls
    {
        type            calculated;
        value           uniform (0 0 0);
    }
    frontAndBack
    {
        type            empty;
    }
}


// ************************************************************************* //
