/*--------------------------------*- C++ -*----------------------------------*\
  =========                 |
  \\      /  F ield         | OpenFOAM: The Open Source CFD Toolbox
   \\    /   O peration     | Website:  https://openfoam.org
    \\  /    A nd           | Version:  13
     \\/     M anipulation  |
\*---------------------------------------------------------------------------*/
FoamFile
{
    format      ascii;
    class       vectorField;
    location    "25";
    object      U_all;
}
// * * * * * * * * * * * * * * * * * * * * * * * * * * * * * * * * * * * * * //


400
(
(1.089413848e-05 -3.789549654e-05 0)
(-0.0006661947994 0.0004130180957 -1.544345948e-23)
(-0.002185325179 0.0009203530574 0)
(-0.00404767512 0.001312718289 0)
(-0.00597160679 0.001534992203 6.8344546e-25)
(-0.007762432646 0.001569773996 4.152591862e-24)
(-0.009284125679 0.001423498791 -7.338629806e-24)
(-0.01043547779 0.001119674337 7.566434925e-24)
(-0.01113633649 0.0006960538795 -2.098199459e-25)
(-0.01132665206 0.0002030709711 -3.998922427e-24)
(-0.01097136392 -0.0003002188057 5.808206961e-24)
(-0.01007199702 -0.0007474851606 -5.933275823e-23)
(-0.008679644468 -0.001075523272 -6.556542933e-23)
(-0.006902718563 -0.001233007224 -7.788409438e-23)
(-0.004910698224 -0.001192613714 4.576187697e-24)
(-0.002927267701 -0.0009619148162 -4.140658907e-24)
(-0.001205382284 -0.0005912264486 -2.000584104e-22)
(-1.915939053e-05 -0.0001699122949 0)
(0.0005180884229 0.000172050209 1.517531895e-25)
(0.0002227344743 0.0003059556996 -2.656000896e-24)
(-0.000263402757 0.0008288428885 1.388365098e-25)
(-0.002703231389 0.003383639616 1.554023456e-23)
(-0.006906956731 0.005604189217 1.544473601e-25)
(-0.01195171365 0.007007826563 -8.473280935e-25)
(-0.01713415178 0.007553375674 1.15886272e-24)
(-0.02197421039 0.007293828964 1.303324407e-23)
(-0.02610942404 0.006321594957 1.423695526e-24)
(-0.02926419053 0.004753995546 -7.317247169e-24)
(-0.03122523431 0.0027370723 1.017023659e-23)
(-0.03184055788 0.0004524460873 4.514937153e-24)
(-0.03102628679 -0.001883990772 -6.32387748e-24)
(-0.02879203351 -0.004022788395 2.960811723e-24)
(-0.02527049556 -0.005708064047 3.897511515e-23)
(-0.0207313284 -0.006707115854 -1.956080006e-24)
(-0.01558926474 -0.006853890697 3.757184307e-24)
(-0.01038499089 -0.006097298255 -9.750464137e-23)
(-0.005730281783 -0.004546124859 9.647304544e-23)
(-0.002233446346 -0.002507454736 -3.977106438e-25)
(-0.0001818482588 -0.000502468833 4.077409788e-25)
(8.342455642e-05 0.0006098493731 0)
(-0.0004188101072 0.002934901311 -2.915599539e-25)
(-0.004647640055 0.008803508181 1.70895752e-23)
(-0.01137133438 0.01323966586 -8.216713986e-24)
(-0.01932620731 0.01579115188 -2.064406727e-25)
(-0.02747257739 0.0165290963 2.02806407e-25)
(-0.03511584539 0.01564360123 7.930468379e-27)
(-0.04171119219 0.01335933462 -1.255100412e-24)
(-0.04683326278 0.009919366583 -4.573660462e-25)
(-0.05014736417 0.005602301094 -1.064931908e-23)
(-0.05140984509 0.0007445666396 0)
(-0.05047562997 -0.004241387016 0)
(-0.04733504118 -0.008886598504 2.673043951e-23)
(-0.04215761437 -0.01268106231 2.814978189e-23)
(-0.0353131092 -0.01513531827 -1.647511482e-24)
(-0.02738909909 -0.0158612324 4.850500918e-23)
(-0.01916955545 -0.01467283455 9.428483754e-23)
(-0.01156068411 -0.01169330909 3.985454816e-23)
(-0.005465361962 -0.007450668235 4.173946476e-25)
(-0.001451120932 -0.002936131269 1.057140622e-25)
(-9.072734782e-05 0.0002257655416 0)
(-0.0005024346696 0.006044997472 -4.255319063e-23)
(-0.006402365861 0.01636979424 -1.699169915e-23)
(-0.01553411043 0.02355796192 8.143597716e-24)
(-0.02627758808 0.02744006127 0)
(-0.03728532688 0.02831946615 0)
(-0.0476876955 0.02658634706 0)
(-0.05679352594 0.02263013488 -4.582639553e-26)
(-0.0640504538 0.01683542891 -2.116531318e-24)
(-0.06900730436 0.009621977758 0)
(-0.07130481113 0.001491311352 1.640406262e-24)
(-0.07070526389 -0.006935820848 2.805915378e-25)
(-0.06712744919 -0.01492916463 -2.813771877e-25)
(-0.06069654499 -0.02166603675 0)
(-0.05180549764 -0.02631473767 4.137761933e-23)
(-0.0411484368 -0.02815946991 -4.686079434e-23)
(-0.02971872431 -0.02677270926 -2.766958248e-23)
(-0.01873661584 -0.02221462379 -3.97075783e-23)
(-0.009487789041 -0.01521890832 7.795463907e-25)
(-0.00297682727 -0.007298186665 9.779233997e-23)
(-0.000231873098 -0.0008662757617 0)
(-0.0005315791564 0.01009442183 4.276019643e-23)
(-0.007983116905 0.02595066192 4.774463851e-25)
(-0.0193957351 0.03642670429 -4.665416656e-25)
(-0.03282193322 0.04185283412 0)
(-0.04664426463 0.04289252586 7.771588083e-25)
(-0.05984902016 0.04019870026 -7.663832188e-25)
(-0.07162911581 0.03434584551 3.668484853e-23)
(-0.0813233532 0.02585566433 1.844195147e-23)
(-0.0883616673 0.0152726698 6.227695018e-24)
(-0.09225035213 0.00324650492 -1.642317358e-24)
(-0.09259963182 -0.009406849274 0)
(-0.08917172631 -0.02167328039 4.377446083e-25)
(-0.08195643732 -0.03236559284 1.011391873e-23)
(-0.0712660744 -0.04021048397 -4.354084213e-23)
(-0.0578180409 -0.04401850584 1.935874115e-24)
(-0.0427843192 -0.04294661016 4.227213051e-23)
(-0.02775357416 -0.03683223205 -3.857746443e-25)
(-0.01455016168 -0.02652650425 0)
(-0.00485931895 -0.01408432641 5.436186942e-23)
(-0.0003641326941 -0.002847007523 -2.56387047e-22)
(-0.0005271898579 0.01499839432 9.834359965e-23)
(-0.009377395508 0.03738803734 -4.902317157e-25)
(-0.02288055858 0.05169926922 0)
(-0.03882832926 0.05893856774 0)
(-0.05538364325 0.06025257373 -8.728190809e-23)
(-0.07142511164 0.05661624089 -8.495129765e-23)
(-0.08606229159 0.04879955355 -4.063362273e-23)
(-0.09854618085 0.03743846389 -1.502387668e-23)
(-0.108189605 0.02315937571 -5.359016632e-24)
(-0.1143394892 0.00671010566 -8.16894603e-24)
(-0.1163997666 -0.01093166006 6.594566497e-24)
(-0.113889192 -0.02848747848 8.814483977e-24)
(-0.1065446164 -0.0443679667 -1.892092963e-23)
(-0.09446455953 -0.05675055871 4.556071057e-24)
(-0.07826578572 -0.06378020346 0)
(-0.05922691428 -0.06393245578 -1.578117777e-23)
(-0.0393385009 -0.05653620466 -2.261964413e-26)
(-0.02114119351 -0.04235683584 0)
(-0.007318464291 -0.02398174717 -1.519484934e-22)
(-0.0005215921522 -0.005925501166 6.053793008e-22)
(-0.0004990592617 0.02064455591 -9.767379466e-23)
(-0.01052898087 0.05045151668 2.831175819e-22)
(-0.02582829563 0.06912129322 1.526452444e-22)
(-0.04401924836 0.0784884041 3.618010542e-24)
(-0.06310441329 0.0802907276 -7.318812849e-23)
(-0.08190031146 0.07587690965 9.039321127e-23)
(-0.099473267 0.06621418223 -3.58885082e-24)
(-0.1150178966 0.0520152063 -1.728412504e-24)
(-0.1277467797 0.03392292081 2.523012934e-24)
(-0.1368420052 0.01270276718 7.376967124e-24)
(-0.1414658618 -0.01058634547 -6.494672414e-24)
(-0.1408198689 -0.03445785618 -9.774691342e-24)
(-0.1342700572 -0.0569246213 -3.261645996e-23)
(-0.1215410496 -0.07552962619 -3.653113389e-23)
(-0.1029639887 -0.08753895413 5.628911725e-25)
(-0.07976121111 -0.09038868883 0)
(-0.05426515346 -0.08244232315 0)
(-0.02987069105 -0.06397541631 -2.904187898e-24)
(-0.010662518 -0.0379869532 2.968595505e-24)
(-0.0007350618297 -0.01050070199 1.027813987e-22)
(-0.0004479065933 0.02687103335 0)
(-0.01134876477 0.06480406972 2.001870452e-22)
(-0.02801484215 0.08829153307 8.961721397e-23)
(-0.04799662129 0.100118458 0)
(-0.06920327209 0.102702802 1.569450557e-22)
(-0.09044025878 0.09781155508 0)
(-0.1107790858 0.08660773683 -1.428096162e-22)
(-0.1294048274 0.0698373548 6.513917128e-24)
(-0.1454723022 0.04808142842 0)
(-0.158030165 0.02201794038 0)
(-0.1660083323 -0.007332834056 -1.37393243e-24)
(-0.1682622992 -0.03838569936 -9.311963783e-25)
(-0.1637019202 -0.06883617265 1.491348709e-22)
(-0.1515167855 -0.09557855896 -4.704412996e-23)
(-0.1315099715 -0.1148254012 -2.559067815e-24)
(-0.104556861 -0.1225660198 1.532866686e-24)
(-0.07309157515 -0.1155480586 -1.557046556e-24)
(-0.0413491108 -0.09282839748 0)
(-0.01525188072 -0.05740613033 3.20277561e-24)
(-0.00104426988 -0.01714675278 -1.012642858e-21)
(-0.0003744735117 0.03346133285 0)
(-0.01174971554 0.07998515052 -1.127899688e-22)
(-0.02920618526 0.1086337683 -6.190188487e-22)
(-0.05031589832 0.1232176311 -3.754784333e-22)
(-0.07296095446 0.1269041549 0)
(-0.09598676793 0.1219207275 4.118849628e-22)
(-0.1185239972 0.1096310858 1.260666898e-22)
(-0.1398108935 0.09077995865 -5.580816512e-24)
(-0.1590181362 0.06581282284 5.55319447e-24)
(-0.1751419349 0.03520911321 0)
(-0.1869517984 -0.0001950945631 2.911646171e-23)
(-0.1930131366 -0.03889466887 4.694715695e-24)
(-0.1917770407 -0.07843498517 -1.076463971e-22)
(-0.1817837809 -0.1151818725 8.000931239e-23)
(-0.1620537969 -0.1442548509 -2.419021154e-22)
(-0.132703514 -0.1598497572 0)
(-0.09577689477 -0.1563066734 0)
(-0.05601512265 -0.1302945094 0)
(-0.02147809917 -0.08380918014 0)
(-0.001500338279 -0.02665452656 5.570740544e-22)
(-0.000287415812 0.04015891601 0)
(-0.01169342586 0.09543172074 -3.492525442e-22)
(-0.02924387144 0.1294015558 8.931721526e-22)
(-0.05060851918 0.1469236259 3.616673723e-22)
(-0.07369940841 0.151968821 0)
(-0.09744966457 0.1472705329 -3.861985594e-22)
(-0.1211047836 0.1344150847 -3.174006761e-23)
(-0.1440300194 0.1141366001 3.332708533e-22)
(-0.1655117002 0.08669881642 1.76926366e-22)
(-0.1846221462 0.05229147054 -4.059675879e-23)
(-0.2001298525 0.01141880632 1.656753828e-23)
(-0.2104595324 -0.034711328 -8.26394697e-24)
(-0.2137181849 -0.08376164026 3.371406046e-22)
(-0.2078189596 -0.131870786 0)
(-0.1908214072 -0.1732701992 2.420189829e-22)
(-0.1616313878 -0.2002537365 5.772553438e-24)
(-0.1211645081 -0.2040068813 -5.858639284e-24)
(-0.07384872795 -0.1772076402 1.547722327e-22)
(-0.02971734451 -0.1188614245 -5.433270515e-24)
(-0.002179492723 -0.040053074 0)
(-0.0002117637666 0.04671449914 0)
(-0.01125005012 0.1105452843 0)
(-0.02815620449 0.1497294802 -5.02220751e-22)
(-0.04874458748 0.17014522 -1.88080972e-23)
(-0.07100046123 0.1766194314 2.038166213e-23)
(-0.09399392502 0.1724472008 -2.014101219e-23)
(-0.1171427056 0.1594828694 -2.316636421e-23)
(-0.1400171574 0.1384777226 -3.029461359e-22)
(-0.1621320878 0.1095148121 6.698412405e-23)
(-0.1827951315 0.07245210721 4.512639234e-23)
(-0.2009828151 0.02735091184 -4.57716731e-23)
(-0.2152262858 -0.02508413027 0)
(-0.2235554202 -0.08297963744 -7.837671584e-23)
(-0.2234622927 -0.1427210213 0)
(-0.2120668598 -0.198176755 -3.739099385e-22)
(-0.1867422565 -0.2400716961 5.244107407e-22)
(-0.1464426574 -0.2560717513 0)
(-0.0939447501 -0.2331160797 -1.493290437e-22)
(-0.04021952129 -0.1639580034 1.936823005e-22)
(-0.003201044554 -0.05860943383 -3.410805248e-22)
(-0.0002015997638 0.05297403422 0)
(-0.01067288027 0.1248128309 9.18217298e-22)
(-0.0262849395 0.1687365312 -2.440483586e-23)
(-0.0450116978 0.1916390382 9.192634827e-22)
(-0.06494669469 0.1992858835 -2.511873817e-23)
(-0.08536709268 0.1956050661 2.838597087e-23)
(-0.1059314765 0.182784575 -2.812685402e-23)
(-0.1264934643 0.1616557135 -1.660775637e-23)
(-0.1469008851 0.1321751181 -5.259787759e-22)
(-0.1668471634 0.09389680674 -8.905881393e-24)
(-0.1857317481 0.04640739247 9.659416985e-24)
(-0.20247963 -0.01023513916 3.312851547e-22)
(-0.2154168034 -0.07499461359 -5.820273492e-22)
(-0.2220220325 -0.1450268919 0)
(-0.2188038592 -0.2146712088 8.886443033e-22)
(-0.2016259255 -0.2739963824 -4.940091116e-22)
(-0.1668636777 -0.3075758014 -1.571967514e-23)
(-0.1140215615 -0.2953762036 0)
(-0.05288446229 -0.2195765456 -1.889468926e-22)
(-0.004749135082 -0.08377133159 3.359875565e-22)
(-0.0003642683091 0.05902156927 1.550900329e-23)
(-0.01049621235 0.1379841225 -8.763532879e-22)
(-0.02441486829 0.1856748928 -1.156985369e-21)
(-0.04026868038 0.2101323866 -8.628326955e-22)
(-0.05630913357 0.2182290315 0)
(-0.07215075521 0.2146140095 3.513549361e-23)
(-0.08779472597 0.2018754259 -7.29433794e-23)
(-0.1034590882 0.1809982472 5.867465319e-23)
(-0.1194014682 0.1518988906 3.021136598e-22)
(-0.1357964562 0.1139155891 -1.128119524e-23)
(-0.1526116715 0.06621593331 0)
(-0.1694555799 0.008179778626 -3.603680114e-22)
(-0.1852793383 -0.060156642 7.515221921e-22)
(-0.1980477778 -0.1372709918 8.831233464e-22)
(-0.2043569936 -0.2189220963 -5.29618387e-22)
(-0.199099407 -0.2959668516 5.162298783e-22)
(-0.1760614075 -0.3514025582 1.078001091e-23)
(-0.1300892853 -0.3584104645 -1.095312408e-23)
(-0.06688791424 -0.2843239154 -8.221954688e-23)
(-0.0070832801 -0.1169948318 0)
(-0.0009096538098 0.06539912587 -1.911372639e-23)
(-0.01167656793 0.1502782328 -1.326894435e-21)
(-0.02389022698 0.2000611438 1.094168131e-21)
(-0.03601556025 0.2244162957 6.734559779e-22)
(-0.04657591575 0.2316535966 6.01429586e-22)
(-0.05577379039 0.2272349179 6.643577092e-22)
(-0.06411634052 0.214174212 -4.458406e-23)
(-0.07227988928 0.1936475449 -3.461146598e-22)
(-0.0809743029 0.1656023222 2.152048365e-22)
(-0.09087669359 0.1292714732 0)
(-0.1025596018 0.08353256586 0)
(-0.1163670244 0.02720256024 2.655285915e-22)
(-0.1321635631 -0.04061717917 8.19456591e-23)
(-0.1489294562 -0.1200097287 -2.821400835e-22)
(-0.1641320617 -0.208926827 -5.41101668e-23)
(-0.1727905963 -0.3006958365 1.301985033e-22)
(-0.1670330245 -0.3793292486 -3.400163831e-22)
(-0.1365301806 -0.4136414077 -1.596899175e-23)
(-0.08018270177 -0.3538292539 8.210718294e-23)
(-0.01050761127 -0.1594114279 -6.032706848e-22)
(-0.002260574723 0.07348794723 0)
(-0.01580432551 0.1626495781 2.145766851e-21)
(-0.0266521413 0.2117866098 0)
(-0.03422608585 0.2333902607 -1.351740095e-21)
(-0.03759755988 0.2377722967 6.184280034e-23)
(-0.03800117105 0.2312516092 -6.192738641e-22)
(-0.03668754146 0.217187178 -4.756043089e-22)
(-0.03489564783 0.1968919804 8.300822696e-22)
(-0.03379391049 0.1703339898 -1.885597353e-22)
(-0.03450437795 0.1367229542 0)
(-0.0381212901 0.09479843877 0)
(-0.04565531251 0.04304512959 2.410736368e-23)
(-0.05791315045 -0.02013527585 -6.006966401e-22)
(-0.07515069029 -0.09620394341 -4.309396561e-22)
(-0.09645590364 -0.18555314 4.637718608e-22)
(-0.1183496817 -0.2853543482 -6.488381032e-22)
(-0.1332740663 -0.3838361129 9.119059884e-23)
(-0.1265365896 -0.4504331854 2.940551423e-23)
(-0.08899205578 -0.4198509918 5.660666643e-22)
(-0.01526920837 -0.211170506 6.021338559e-22)
(-0.005180964833 0.08598001308 0)
(-0.0252562945 0.1766274372 1.465599056e-22)
(-0.03483589991 0.2205933959 -4.916940588e-23)
(-0.03640305689 0.2354825701 7.642579507e-22)
(-0.03018876197 0.2343372703 -7.005041581e-22)
(-0.01917057257 0.224157435 4.746258833e-23)
(-0.005620494739 0.2083504339 -1.018582409e-22)
(0.008563893909 0.1881229515 -3.38972189e-22)
(0.02179296383 0.1633909867 2.062737081e-22)
(0.03262198688 0.1333250483 0)
(0.03957897799 0.09664234794 0)
(0.04116486659 0.05174249632 -2.90256835e-22)
(0.03577995473 -0.003253304979 0)
(0.02197740577 -0.07058155448 -5.512053755e-22)
(-0.001268769096 -0.1525716925 -1.492057054e-23)
(-0.03310800095 -0.2505933349 2.559604886e-23)
(-0.06909499596 -0.3599325604 2.20289436e-22)
(-0.09227999698 -0.4575409008 4.789413813e-24)
(-0.08718160171 -0.4698112032 -5.789652074e-22)
(-0.02103134477 -0.2698960954 0)
(-0.0111163496 0.1085974575 0)
(-0.04248966136 0.1947143733 -8.848163065e-22)
(-0.04795688391 0.2258179061 -5.410883633e-22)
(-0.03919801861 0.2282113274 4.543669985e-22)
(-0.01878197925 0.2182304272 -1.71005642e-24)
(0.007659776926 0.2028198793 -4.560869726e-23)
(0.03667479326 0.1847603636 5.696431409e-22)
(0.06582449276 0.1647108843 -2.766776112e-23)
(0.09326570917 0.142312652 -2.069694825e-22)
(0.1173836995 0.1166280379 3.142098911e-23)
(0.1365410185 0.08641254919 -3.425806535e-23)
(0.1489622007 0.05017816777 -3.690495151e-23)
(0.1525233673 0.006160794706 3.205554e-22)
(0.1449330357 -0.0479597091 6.11945911e-22)
(0.1235128157 -0.1153039554 -5.101045523e-22)
(0.08633272685 -0.2004185164 -1.615985107e-22)
(0.03198861362 -0.3067798485 1.531365724e-22)
(-0.02362286074 -0.4239828991 7.293754846e-23)
(-0.06492479328 -0.4871603518 1.913303597e-21)
(-0.02509980816 -0.3291537493 2.955005031e-21)
(-0.02004678089 0.1460729571 -4.390116056e-23)
(-0.06416435647 0.211295447 4.41728824e-23)
(-0.05070325676 0.2177293285 1.000163223e-21)
(-0.01934275632 0.2014667874 -8.268496016e-24)
(0.02414198519 0.1809061767 0)
(0.07153774229 0.1606919405 4.363551664e-23)
(0.1190662433 0.1416484353 -2.273758221e-22)
(0.1644722463 0.1233174841 -9.027572657e-23)
(0.206220484 0.1048115249 3.680580844e-23)
(0.2429597684 0.08507167284 -1.701594789e-23)
(0.2732165211 0.06296214251 3.429859712e-23)
(0.2952498334 0.03726386711 -6.592490724e-23)
(0.3066938182 0.006536109106 -9.30368329e-23)
(0.3049710591 -0.03087669756 1.517006098e-22)
(0.2863913698 -0.07786207738 0)
(0.2470550119 -0.1399294618 1.505530742e-22)
(0.1810907692 -0.2266297135 2.560015383e-22)
(0.09604341606 -0.3443891735 0)
(-0.006698171419 -0.4552206794 -3.675653546e-21)
(-0.0192241729 -0.3777534418 -2.892634002e-21)
(-0.02591944955 0.2276831093 -9.51414637e-22)
(-0.03998313803 0.2238218069 -1.388953312e-22)
(0.03656125489 0.1810583965 -2.335520053e-22)
(0.1090497074 0.1451054776 -1.193707038e-22)
(0.1817178958 0.1172439274 -4.295702726e-23)
(0.2490071821 0.09627841721 9.782762901e-23)
(0.3100311967 0.08002454098 -1.408528832e-22)
(0.3646180389 0.06656777611 1.297119688e-22)
(0.4126221369 0.05449164939 -8.619763149e-23)
(0.4536219166 0.04270904984 1.132182672e-25)
(0.4867849515 0.03032328674 1.527692984e-23)
(0.5107425573 0.01652945732 7.996970486e-23)
(0.5236576179 0.000536981105 -1.811076583e-22)
(0.5231781797 -0.01863327843 -1.617108118e-22)
(0.5052311505 -0.04286442307 -4.262746218e-23)
(0.4658706698 -0.07633208179 0)
(0.3952690427 -0.1286088663 -1.846509043e-22)
(0.2916066476 -0.2208467891 8.148793977e-22)
(0.1197452336 -0.3525016712 1.631606775e-21)
(0.02670540255 -0.3775497566 2.172658411e-21)
(0.2142895121 0.1347447908 9.864924763e-22)
(0.2776313312 0.09870512402 0)
(0.4316594714 0.05810418706 -2.594269116e-22)
(0.5304750357 0.03846263521 -1.741619867e-22)
(0.6016963938 0.02623413592 0)
(0.6571193651 0.01831916477 -6.008829634e-23)
(0.7015204992 0.01313594843 6.377696352e-23)
(0.737603141 0.009542093462 -1.800067116e-23)
(0.7669356036 0.006804467795 2.885836942e-23)
(0.7902094332 0.00446478509 2.314935256e-23)
(0.8074543882 0.00222139038 0)
(0.8182612324 -0.0001499863585 -2.872941776e-23)
(0.8216493287 -0.002723755241 0)
(0.8162390467 -0.005712598499 2.738033068e-23)
(0.799133156 -0.009611341541 1.421606686e-23)
(0.7679986184 -0.01500254 -5.799478206e-23)
(0.7106556143 -0.02502521787 -2.535679188e-22)
(0.6235184229 -0.04204287564 -6.918125634e-22)
(0.4230090992 -0.09182970316 0)
(0.2705674622 -0.1524021942 -2.119486214e-21)
)


// ************************************************************************* //
