/*--------------------------------*- C++ -*----------------------------------*\
  =========                 |
  \\      /  F ield         | OpenFOAM: The Open Source CFD Toolbox
   \\    /   O peration     | Website:  https://openfoam.org
    \\  /    A nd           | Version:  13
     \\/     M anipulation  |
\*---------------------------------------------------------------------------*/
FoamFile
{
    format      ascii;
    class       vectorField;
    location    "25";
    object      U_all;
}
// * * * * * * * * * * * * * * * * * * * * * * * * * * * * * * * * * * * * * //


400
(
(0.0001685906827 -0.000172040243 0)
(-0.000155363171 4.071210296e-05 0)
(-0.001514781425 0.0002713194438 0)
(-0.00369674855 0.0004183338642 0)
(-0.006366610949 0.0004954203405 0)
(-0.009232196675 0.0005232460684 0)
(-0.01205161313 0.0005115801733 0)
(-0.01460068966 0.0004599679134 0)
(-0.01665041731 0.0003625468991 0)
(-0.01796682287 0.0002146709775 0)
(-0.01833579419 1.97343771e-05 0)
(-0.01760897252 -0.0002056012481 0)
(-0.01575977201 -0.0004290912752 0)
(-0.01293227846 -0.0006064700762 0)
(-0.009462092157 -0.0006911913878 0)
(-0.005849515582 -0.0006491316599 0)
(-0.002675983468 -0.0004729314302 0)
(-0.0004673398833 -0.0001905834574 0)
(0.0004876082714 0.0001200002174 0)
(0.0002932251663 0.0002865225867 0)
(-5.560357011e-05 0.0001537575935 0)
(-0.002015188047 0.001882886932 0)
(-0.006219064118 0.003643274854 0)
(-0.01214741115 0.004857796777 0)
(-0.01907474719 0.005493786972 0)
(-0.02635292778 0.005625280412 0)
(-0.03339926433 0.005303425405 0)
(-0.03965642731 0.004537453203 0)
(-0.04457117408 0.003320146151 0)
(-0.047610643 0.001670103766 0)
(-0.04832119904 -0.0003262504379 0)
(-0.04642012588 -0.002486772404 0)
(-0.04189945916 -0.004531134189 0)
(-0.0351112009 -0.006113860865 0)
(-0.02679794474 -0.006895397443 0)
(-0.01803536329 -0.006641815366 0)
(-0.01006542405 -0.005327573113 0)
(-0.004026792731 -0.00321126845 0)
(-0.0006186430374 -0.0008920749294 0)
(0.0002023095184 0.0005353450226 0)
(-0.0003487598458 0.001679678193 0)
(-0.004312137486 0.006252082776 0)
(-0.01141625711 0.01030385009 0)
(-0.0207715774 0.01304113353 0)
(-0.03133395276 0.01441729871 0)
(-0.04222442419 0.014556279 0)
(-0.05263706551 0.01354867938 0)
(-0.0617905786 0.01142109557 0)
(-0.06891788756 0.008188691177 0)
(-0.07329792335 0.003939922931 0)
(-0.07433190024 -0.001082248359 0)
(-0.0716532093 -0.006429926403 0)
(-0.06524923924 -0.01145259521 0)
(-0.05556527933 -0.01536899442 0)
(-0.04355318594 -0.01741584278 0)
(-0.03062183972 -0.01705948243 0)
(-0.01845044303 -0.01422406348 0)
(-0.00866052041 -0.009465071099 0)
(-0.002416464919 -0.004048402001 0)
(1.882777848e-05 -5.109347208e-05 0)
(-0.0006136636326 0.004436754937 0)
(-0.006522505478 0.01317118339 0)
(-0.01640668695 0.02014639876 0)
(-0.02894095609 0.02468043353 0)
(-0.04276025798 0.02683364933 0)
(-0.05681223089 0.02681799507 0)
(-0.07015072245 0.02477382731 0)
(-0.08185819862 0.02075155232 0)
(-0.09103323592 0.01480151848 0)
(-0.09682452379 0.007104668548 0)
(-0.09850884741 -0.001906211578 0)
(-0.09560435192 -0.01147184012 0)
(-0.08800436296 -0.02050665661 0)
(-0.07611021431 -0.02770138746 0)
(-0.0609284662 -0.03174542246 0)
(-0.04407803474 -0.03166454517 0)
(-0.02763734009 -0.02721504 0)
(-0.01379305045 -0.01920826337 0)
(-0.004368491261 -0.009628945177 0)
(-0.0001390875228 -0.001586136802 0)
(-0.0008418593797 0.008314358307 0)
(-0.008505822689 0.02242936294 0)
(-0.02092588617 0.03286849696 0)
(-0.03634863095 0.03937494786 0)
(-0.05310633049 0.04227999742 0)
(-0.07001528479 0.04195556314 0)
(-0.08605147311 0.0386164015 0)
(-0.1002291152 0.0323406684 0)
(-0.1115697095 0.02320845646 0)
(-0.1191217302 0.01148114144 0)
(-0.1220252424 -0.002235112288 0)
(-0.1196179015 -0.01688221243 0)
(-0.1115806292 -0.03092763389 0)
(-0.0981147843 -0.04247066866 0)
(-0.08012254608 -0.04951355927 0)
(-0.0593259277 -0.05042693424 0)
(-0.03821216486 -0.04456066213 0)
(-0.01969874987 -0.03281818478 0)
(-0.006549278124 -0.0179042262 0)
(-0.0002836428465 -0.00412155586 0)
(-0.001031440373 0.01316631717 0)
(-0.0101978875 0.03375323973 0)
(-0.02481574489 0.04815342693 0)
(-0.04276017927 0.05679803062 0)
(-0.0621069615 0.06045432682 0)
(-0.0815859268 0.05974140827 0)
(-0.1001497953 0.0549827616 0)
(-0.1168026596 0.04628471665 0)
(-0.1305375964 0.03373234159 0)
(-0.1403269497 0.01762038609 0)
(-0.1451597811 -0.001335973308 0)
(-0.1441282795 -0.02184297436 0)
(-0.1365808075 -0.04195867287 0)
(-0.1223498312 -0.05915117246 0)
(-0.1020391429 -0.07057439499 0)
(-0.07731035268 -0.07364089812 0)
(-0.0510150973 -0.06690179152 0)
(-0.02696654413 -0.05102774948 0)
(-0.009240655714 -0.02939256356 0)
(-0.0004566575046 -0.007804203437 0)
(-0.001176601582 0.01882335627 0)
(-0.01153763145 0.04680224077 0)
(-0.02792477655 0.06560384856 0)
(-0.04792297477 0.07655829399 0)
(-0.06941369209 0.08101765473 0)
(-0.09108837014 0.07993756573 0)
(-0.1119285215 0.0737894323 0)
(-0.1309844526 0.06270584723 0)
(-0.1472736423 0.04673780565 0)
(-0.1597306588 0.02613882369 0)
(-0.1672019128 0.001628812848 0)
(-0.1685039494 -0.02538151245 0)
(-0.1625640687 -0.05263286007 0)
(-0.1486810508 -0.07697555203 0)
(-0.1269255189 -0.09457287224 0)
(-0.09863057716 -0.1015167097 0)
(-0.06682080355 -0.09499164243 0)
(-0.036268445 -0.07485694122 0)
(-0.01280408882 -0.044939667 0)
(-0.0007084121013 -0.01295927328 0)
(-0.001269811555 0.02508405756 0)
(-0.01246156124 0.06115888971 0)
(-0.0300963991 0.08471674198 0)
(-0.05155668976 0.09814125878 0)
(-0.07459479718 0.1034955844 0)
(-0.09790994615 0.1021585396 0)
(-0.1205619593 0.09479329452 0)
(-0.1417055514 0.08155986824 0)
(-0.160447414 0.06243249832 0)
(-0.1757498895 0.03753522303 0)
(-0.1863762126 0.007460969121 0)
(-0.1908971211 -0.02642790685 0)
(-0.1877944432 -0.06171873971 0)
(-0.1757185449 -0.0947520571 0)
(-0.1539577526 -0.1206488315 0)
(-0.1231351639 -0.1338369504 0)
(-0.08603352874 -0.1294140037 0)
(-0.04820371844 -0.1054827398 0)
(-0.01763846534 -0.06571992191 0)
(-0.001100811458 -0.02011589077 0)
(-0.00130648432 0.03171528673 0)
(-0.01292409893 0.07633158449 0)
(-0.03120240784 0.1048766197 0)
(-0.05340031204 0.1208782355 0)
(-0.07719859793 0.1272136092 0)
(-0.101343931 0.1257693779 0)
(-0.1250199335 0.1174525975 0)
(-0.1475457563 0.1024636627 0)
(-0.1681958823 0.08066858342 0)
(-0.1860591787 0.05198006596 0)
(-0.1999301572 0.01672593443 0)
(-0.2082494384 -0.02397278123 0)
(-0.2091338332 -0.06779233855 0)
(-0.2005677896 -0.1108027483 0)
(-0.1808614672 -0.1472088182 0)
(-0.1494852744 -0.1695836301 0)
(-0.108321453 -0.1701790603 0)
(-0.06311504439 -0.1439708553 0)
(-0.02415375269 -0.09316616972 0)
(-0.001715764343 -0.03002305739 0)
(-0.001292120359 0.03847045123 0)
(-0.01293487584 0.09178090828 0)
(-0.03120825294 0.125369029 0)
(-0.05330388004 0.1439349155 0)
(-0.07687412721 0.151255607 0)
(-0.1007465914 0.1498121494 0)
(-0.124270873 0.1408200818 0)
(-0.1469903351 0.1245533472 0)
(-0.1684338557 0.1007648039 0)
(-0.1879398668 0.06910342958 0)
(-0.2044988234 0.02951738461 0)
(-0.2166203571 -0.01731123319 0)
(-0.2222591072 -0.06944262434 0)
(-0.2188689152 -0.1230590076 0)
(-0.2037323937 -0.1718258312 0)
(-0.1747848574 -0.2065895126 0)
(-0.1321909437 -0.2161963143 0)
(-0.08081172318 -0.1908127343 0)
(-0.03271852881 -0.1287911271 0)
(-0.002666411496 -0.04366168892 0)
(-0.001252252378 0.04513309471 0)
(-0.01261039087 0.1069814363 0)
(-0.03026166569 0.1454259084 0)
(-0.05135072824 0.1663306983 0)
(-0.07353062695 0.1744593676 0)
(-0.09574730191 0.1729816152 0)
(-0.1175623358 0.1634990794 0)
(-0.1388017799 0.1464151806 0)
(-0.1593323315 0.1214002931 0)
(-0.1788675314 0.087835059 0)
(-0.1967785771 0.04522628721 0)
(-0.2118964999 -0.006339711004 0)
(-0.2223245452 -0.06561437697 0)
(-0.2252993554 -0.1293743833 0)
(-0.2172659424 -0.1913918623 0)
(-0.1944739138 -0.2413778133 0)
(-0.1546093941 -0.2647454295 0)
(-0.1001803845 -0.2452589782 0)
(-0.04353314439 -0.1738319706 0)
(-0.004107537068 -0.06223974985 0)
(-0.001246360853 0.05159482278 0)
(-0.0122401099 0.12152774 0)
(-0.02879499058 0.1643076402 0)
(-0.04798686157 0.1869926328 0)
(-0.06749744028 0.1954566903 0)
(-0.08645701149 0.1936653809 0)
(-0.1047058023 0.1836888074 0)
(-0.1224128551 0.1661288928 0)
(-0.1398502467 0.1406349714 0)
(-0.1572042967 0.106367098 0)
(-0.174382985 0.06240172515 0)
(-0.1907892211 0.008156426748 0)
(-0.2050284932 -0.05604105648 0)
(-0.2145803539 -0.1280622348 0)
(-0.2155353484 -0.2026219034 0)
(-0.2027059155 -0.26939275 0)
(-0.1708992886 -0.3111853045 0)
(-0.118766426 -0.3045502618 0)
(-0.05637693109 -0.2286333505 0)
(-0.006238562504 -0.08713632084 0)
(-0.001390142942 0.05798153652 0)
(-0.01237316675 0.135287437 0)
(-0.0276306072 0.1814109767 0)
(-0.04412215652 0.2048279353 0)
(-0.05962179981 0.2127435155 0)
(-0.073582291 0.2100385751 0)
(-0.0862360832 0.199315755 0)
(-0.09816526436 0.1814311231 0)
(-0.1100904429 0.1560818987 0)
(-0.1227144878 0.1222919569 0)
(-0.1365614627 0.07879199857 0)
(-0.1517635891 0.0243749761 0)
(-0.1677412794 -0.04163019346 0)
(-0.1827375809 -0.1185528299 0)
(-0.1932074859 -0.202890353 0)
(-0.193271432 -0.2857532425 0)
(-0.1751191337 -0.3491986001 0)
(-0.1325339484 -0.3633252851 0)
(-0.07020731102 -0.2917256845 0)
(-0.009286876052 -0.1197166265 0)
(-0.001896506348 0.06485112939 0)
(-0.01393912801 0.1485941529 0)
(-0.02806959944 0.1963662041 0)
(-0.0411394082 0.2187687332 0)
(-0.05119856262 0.2247335174 0)
(-0.0582978892 0.2201654862 0)
(-0.06325083597 0.2082004429 0)
(-0.06713941532 0.1899478207 0)
(-0.07114855464 0.1651901579 0)
(-0.07647550788 0.1329012403 0)
(-0.08423553102 0.0915982219 0)
(-0.09531427445 0.03960871561 0)
(-0.110103252 -0.02461783786 0)
(-0.1280250412 -0.1019312794 0)
(-0.1467100166 -0.1911855188 0)
(-0.1607716417 -0.2864533634 0)
(-0.1608920209 -0.3717565508 0)
(-0.13599092 -0.4136269981 0)
(-0.08265533197 -0.3587419042 0)
(-0.01342165106 -0.1608627058 0)
(-0.00313486978 0.07348594877 0)
(-0.01839443167 0.162446373 0)
(-0.03187338366 0.2090382382 0)
(-0.04062635131 0.2276951224 0)
(-0.04347248968 0.2297056382 0)
(-0.04156488581 0.2220160081 0)
(-0.03657586998 0.2081561676 0)
(-0.03018500807 0.1893787533 0)
(-0.02402826927 0.1655165135 0)
(-0.01971730831 0.1355402774 0)
(-0.01884330239 0.09788744197 0)
(-0.02293047412 0.05064825966 0)
(-0.03329392937 -0.008293449125 0)
(-0.05069794484 -0.08100676317 0)
(-0.07457521773 -0.1687365272 0)
(-0.1013879928 -0.2695946802 0)
(-0.1222362965 -0.3726226284 0)
(-0.1225647188 -0.4458067244 0)
(-0.08949846212 -0.4217162186 0)
(-0.01844196942 -0.2101626528 0)
(-0.005617419949 0.0863849453 0)
(-0.0277052241 0.1785956916 0)
(-0.04070211166 0.2191616933 0)
(-0.04314004205 0.2299722774 0)
(-0.03586554771 0.2254267786 0)
(-0.02198775206 0.2132130955 0)
(-0.004366378028 0.1968560215 0)
(0.01466256111 0.1774798519 0)
(0.03307975784 0.1548340435 0)
(0.04899485259 0.1278724123 0)
(0.06051831196 0.09505176324 0)
(0.06569432963 0.05445531032 0)
(0.0625014084 0.003805698914 0)
(0.04898702099 -0.05958820417 0)
(0.02375251257 -0.1387416487 0)
(-0.01253924456 -0.2359141606 0)
(-0.05376240278 -0.3476702439 0)
(-0.08479646578 -0.4499985715 0)
(-0.08417661611 -0.4694761713 0)
(-0.02314124992 -0.2655074296 0)
(-0.009900456162 0.1088213611 0)
(-0.04338932708 0.1992399399 0)
(-0.05321197072 0.2248667813 0)
(-0.04349127516 0.2219718023 0)
(-0.02029368138 0.2080336003 0)
(0.01019507992 0.1902842159 0)
(0.0438608006 0.1713888086 0)
(0.07790729526 0.1518666245 0)
(0.1101841371 0.131152074 0)
(0.1387830731 0.1081200307 0)
(0.1617772222 0.08131245283 0)
(0.1770537497 0.04899632579 0)
(0.1821991908 0.009106763549 0)
(0.174462299 -0.04099164831 0)
(0.1508615674 -0.1049762956 0)
(0.1090159185 -0.188084743 0)
(0.05027076466 -0.2951834444 0)
(-0.01398775104 -0.416982983 0)
(-0.05752005033 -0.4881003957 0)
(-0.02474584183 -0.3232665483 0)
(-0.0177546588 0.1519100736 0)
(-0.06140971956 0.2236968412 0)
(-0.0527297763 0.2173800247 0)
(-0.01533187637 0.1943153121 0)
(0.03385999768 0.1702097241 0)
(0.08647494323 0.1481510517 0)
(0.1386003261 0.1285299577 0)
(0.1880025352 0.110728501 0)
(0.2331192495 0.09366865837 0)
(0.2725571604 0.07612937644 0)
(0.3047744024 0.05682721028 0)
(0.3278793977 0.03438035875 0)
(0.3394604687 0.007225777239 0)
(0.3364762335 -0.02665264211 0)
(0.3150710329 -0.07041271773 0)
(0.2706003201 -0.129956726 0)
(0.1988300001 -0.2161307624 0)
(0.102029319 -0.3381107283 0)
(0.003778740063 -0.4565515526 0)
(-0.01610594443 -0.3689653314 0)
(-0.02413282034 0.2084708895 0)
(-0.037767052 0.2305652372 0)
(0.03735141384 0.1765606507 0)
(0.1249058013 0.1366584534 0)
(0.2053044671 0.108694755 0)
(0.2770357045 0.08776911239 0)
(0.3408311717 0.07168443893 0)
(0.3970469293 0.05883705387 0)
(0.4457900056 0.04782272394 0)
(0.4868356087 0.03749772406 0)
(0.5195715475 0.02687414923 0)
(0.5427402362 0.0150699542 0)
(0.5544071713 0.00118506478 0)
(0.5518658829 -0.01586740282 0)
(0.5312422594 -0.03792449403 0)
(0.487005184 -0.06890585785 0)
(0.4106626171 -0.1190000596 0)
(0.2905335229 -0.2093457455 0)
(0.1329304916 -0.3383010266 0)
(0.03860148892 -0.3402883832 0)
(0.2419384164 0.1091956927 0)
(0.313642284 0.09720766006 0)
(0.4445882826 0.05700889932 0)
(0.5498495711 0.03509915031 0)
(0.62410213 0.02369226411 0)
(0.6793817282 0.01664451701 0)
(0.7229797106 0.0119197724 0)
(0.7580539816 0.008657644494 0)
(0.7861941982 0.006255292553 0)
(0.8082184591 0.004270600073 0)
(0.8243080991 0.002396047983 0)
(0.8340729577 0.0004205934548 0)
(0.8366207715 -0.001835046933 0)
(0.8304957162 -0.004529801016 0)
(0.8133468514 -0.007990594303 0)
(0.7812378223 -0.0128918056 0)
(0.7258357934 -0.02128646375 0)
(0.6299665597 -0.03816424472 0)
(0.4592888612 -0.08564750104 0)
(0.3048791551 -0.12571364 0)
)


// ************************************************************************* //
