/*--------------------------------*- C++ -*----------------------------------*\
  =========                 |
  \\      /  F ield         | OpenFOAM: The Open Source CFD Toolbox
   \\    /   O peration     | Website:  https://openfoam.org
    \\  /    A nd           | Version:  13
     \\/     M anipulation  |
\*---------------------------------------------------------------------------*/
FoamFile
{
    format      ascii;
    class       scalarField;
    location    "13.37";
    object      p_all;
}
// * * * * * * * * * * * * * * * * * * * * * * * * * * * * * * * * * * * * * //


400
(
-8.251109389e-07
-0.0005429055315
-0.0008800205515
-0.001003075584
-0.0009205951576
-0.0006648259729
-0.0002731704693
0.0002185572214
0.0007740427095
0.001353076369
0.001910293925
0.002393234288
0.002746802167
0.002918115421
0.002865653164
0.002571144113
0.002054349504
0.001371972563
0.0007183188103
0.0001259994502
0.000581221036
5.811520383e-06
-0.0003528954977
-0.0004907261077
-0.0004559048333
-0.0002749554431
2.277380852e-05
0.0004080235126
0.0008494564018
0.001310006938
0.00175012603
0.002118902498
0.002366200395
0.002444845858
0.002320940406
0.001985401979
0.001464354653
0.0008221326517
0.0002295544701
-0.0004300213899
0.0009404116453
0.0003025767614
-9.327974252e-05
-0.0002349624003
-0.0002241428859
-9.08267583e-05
0.0001408705386
0.0004495323486
0.0008114024652
0.001195067473
0.001567005318
0.001875231576
0.002069565313
0.002101445534
0.001935737584
0.001562346215
0.00100470028
0.0003186997934
-0.0003747428757
-0.00120705986
0.0009611053788
0.0002501598639
-0.0001941628268
-0.00034144543
-0.0003452600365
-0.0002423231687
-5.348932179e-05
0.0002083327846
0.0005292904417
0.0008885882346
0.001246659136
0.001559377504
0.001766690164
0.001808426926
0.001635859838
0.001225467526
0.000588665312
-0.0002283348757
-0.001137412055
-0.002280749574
0.0004668961309
-0.0002912503783
-0.0007639225735
-0.0009101049707
-0.0009246136814
-0.0008486725207
-0.0006976795394
-0.0004726720363
-0.0001738894111
0.0001889715654
0.0005856655409
0.0009680060818
0.001265289551
0.001397138763
0.001287541451
0.0008834602709
0.0001707132148
-0.0008189780348
-0.002021329134
-0.003540642381
-0.0006923814445
-0.001466300323
-0.001949076102
-0.002093894757
-0.002128633413
-0.002095604812
-0.002000635321
-0.001827471687
-0.001555755097
-0.001175739461
-0.0007031371468
-0.0001823628221
0.0003044868949
0.0006483684381
0.0007281986036
0.0004365334372
-0.000291840288
-0.001455149364
-0.003017091998
-0.005013140994
-0.002653106342
-0.003409116798
-0.003894793241
-0.004052882355
-0.004140068256
-0.00419647023
-0.004213482983
-0.004150482561
-0.003956358555
-0.003588408283
-0.003032725521
-0.002315019891
-0.001520757196
-0.0007912619305
-0.0003134276843
-0.000286775545
-0.0008732738865
-0.002139401325
-0.004102275176
-0.006685125973
-0.005524344879
-0.006235302209
-0.00672751027
-0.006932696092
-0.007133069387
-0.007364450986
-0.007599711899
-0.007766357402
-0.007769865246
-0.007515500993
-0.006934446883
-0.006003419434
-0.004789528743
-0.003456087265
-0.002272155224
-0.001578782794
-0.001710080733
-0.002879346272
-0.005224507942
-0.008504944802
-0.009376458013
-0.01002098018
-0.01053188531
-0.01083354884
-0.01123255039
-0.01176133798
-0.0123729934
-0.01295757114
-0.01336443808
-0.01342350126
-0.01297232451
-0.01190876354
-0.01022053892
-0.008060016407
-0.005774385157
-0.003894726822
-0.003033979107
-0.003690756505
-0.006269115863
-0.01032182638
-0.01422615208
-0.01478578404
-0.01532704977
-0.01577388377
-0.01646185804
-0.01742618077
-0.01860387998
-0.01984668799
-0.02093890182
-0.02161469538
-0.02158640289
-0.0205988051
-0.01850571261
-0.01536980087
-0.01156678468
-0.007833153345
-0.005176781581
-0.004589881439
-0.007011822025
-0.01180049347
-0.02003070138
-0.02048424586
-0.02104936293
-0.02165769921
-0.02269044439
-0.02419898355
-0.02611414257
-0.02825472519
-0.03033854213
-0.03199155587
-0.03277008007
-0.03221361563
-0.02996478546
-0.02588053811
-0.02025407994
-0.01396452192
-0.008482345985
-0.005539952292
-0.007041742345
-0.01228521452
-0.02670242333
-0.02701432891
-0.02755114936
-0.02825796572
-0.02960046197
-0.03166861639
-0.03440215045
-0.03759698686
-0.04090985137
-0.04385818747
-0.04582968178
-0.04612222607
-0.04411751296
-0.03933630062
-0.03182680075
-0.02243866604
-0.01304131499
-0.006290139726
-0.005630370275
-0.01059140815
-0.03415659227
-0.03424901566
-0.03461938334
-0.03522294024
-0.03668783236
-0.0391746125
-0.04264831782
-0.04689076873
-0.05150335043
-0.05590233838
-0.05931689383
-0.06083305846
-0.05943999079
-0.05434141498
-0.04515662067
-0.03244741976
-0.0182336325
-0.006056316786
-0.001507051096
-0.004719832026
-0.04241658997
-0.04209787636
-0.04201713761
-0.04211031614
-0.04330942915
-0.04588347153
-0.04983204285
-0.05492087578
-0.06068914922
-0.06645663768
-0.07130140664
-0.07408868501
-0.07353337643
-0.06840608435
-0.05783429177
-0.04185246677
-0.02225654995
-0.003096714511
0.00748597381
0.008461520716
-0.05181326406
-0.05057804415
-0.04950319798
-0.04840364506
-0.04873864349
-0.05090755704
-0.05492630929
-0.06052245571
-0.06713715591
-0.07398355591
-0.07998464441
-0.08380126228
-0.08389054926
-0.07863551994
-0.06667651322
-0.04738377871
-0.02200729461
0.005608002591
0.02480808624
0.03360173933
-0.06346806453
-0.06001752395
-0.0569400645
-0.05361393953
-0.05230827335
-0.05350129451
-0.0571418831
-0.06291190843
-0.07000092309
-0.07753406833
-0.08423908266
-0.08856280528
-0.08872352474
-0.08270619095
-0.06875926728
-0.04555785162
-0.01370918146
0.02445587003
0.05557342272
0.07737924951
-0.08002219992
-0.07092857591
-0.0639956055
-0.05705359826
-0.05331707358
-0.05308095215
-0.0560908044
-0.06171388223
-0.06903318478
-0.07688600441
-0.08379536992
-0.08796693571
-0.08733627162
-0.07957246364
-0.06244512529
-0.03405362543
0.005519714515
0.05859807442
0.1058043455
0.1480450759
-0.1103789225
-0.08574508165
-0.07152343396
-0.05890523725
-0.0518467842
-0.04979179391
-0.05197514371
-0.05734461005
-0.06466786005
-0.07250814398
-0.07915217233
-0.08255875537
-0.08041861104
-0.06983350705
-0.04822904161
-0.01275890412
0.03817461389
0.1070741837
0.1779198609
0.2564151018
-0.1683425024
-0.09982943319
-0.07496112731
-0.054769226
-0.04458661492
-0.04152699685
-0.0436209523
-0.04924590879
-0.05685127496
-0.06479218715
-0.07119083826
-0.07383574385
-0.07002455324
-0.05696596129
-0.03103098807
0.0118867577
0.07553082833
0.1663282354
0.2760841979
0.4376309179
-0.3983360293
-0.1380282471
-0.07493294049
-0.04707293945
-0.03353227143
-0.02998860667
-0.03272303889
-0.03914669011
-0.0474090164
-0.05577401276
-0.06233891392
-0.06489087139
-0.06089369879
-0.04691592331
-0.01874946789
0.02990394023
0.1068974079
0.2333578403
0.4198079323
0.7799537183
)


// ************************************************************************* //
