/*--------------------------------*- C++ -*----------------------------------*\
  =========                 |
  \\      /  F ield         | OpenFOAM: The Open Source CFD Toolbox
   \\    /   O peration     | Website:  https://openfoam.org
    \\  /    A nd           | Version:  13
     \\/     M anipulation  |
\*---------------------------------------------------------------------------*/
FoamFile
{
    format      ascii;
    class       vectorField;
    location    "23.3";
    object      U_all;
}
// * * * * * * * * * * * * * * * * * * * * * * * * * * * * * * * * * * * * * //


400
(
(1.085309875e-05 -3.790863162e-05 0)
(-0.0006662161669 0.000413002004 -1.542011349e-23)
(-0.002185245675 0.0009203119189 0)
(-0.00404749324 0.001312654472 0)
(-0.005971319377 0.001534914942 6.829802106e-25)
(-0.007762051076 0.001569693188 4.153372624e-24)
(-0.009283672493 0.001423425364 -7.324768921e-24)
(-0.01043498252 0.00111961877 7.581063836e-24)
(-0.01113583138 0.0006960235008 -2.099379062e-25)
(-0.01132616851 0.000203067483 -4.000716308e-24)
(-0.01097093184 -0.0003001987016 5.810258895e-24)
(-0.01007164325 -0.0007474494884 -5.935054821e-23)
(-0.00867938893 -0.001075481853 -6.558419232e-23)
(-0.006902570908 -0.001232970048 -7.790363054e-23)
(-0.004910654008 -0.00119258945 4.57745391e-24)
(-0.002927306744 -0.0009619094957 -4.142041375e-24)
(-0.001205472449 -0.000591241536 -2.001564647e-22)
(-1.925687399e-05 -0.0001699425534 0)
(0.0005180188926 0.0001720131525 1.522101562e-25)
(0.0002227166885 0.0003059312153 -2.71577248e-24)
(-0.000263406532 0.0008287847183 1.390041914e-25)
(-0.002703107044 0.003383456878 1.551649481e-23)
(-0.006906583754 0.005603876616 1.540905135e-25)
(-0.01195104693 0.007007434745 -8.465203846e-25)
(-0.01713318989 0.007552959756 1.157623485e-24)
(-0.02197298549 0.007293439396 1.301816317e-23)
(-0.02610799384 0.006321275184 1.438841729e-24)
(-0.029262632 0.004753780387 -7.331454785e-24)
(-0.03122363669 0.002736984194 1.017787537e-23)
(-0.03183901197 0.0004524898735 4.517005367e-24)
(-0.03102487766 -0.001883822641 -6.326104516e-24)
(-0.02879083288 -0.004022527456 2.960684139e-24)
(-0.02526955262 -0.005707753612 3.8984785e-23)
(-0.02073066622 -0.006706805349 -1.956757734e-24)
(-0.01558887581 -0.006853628353 3.75859289e-24)
(-0.01038483518 -0.006097123145 -9.755557426e-23)
(-0.00573029054 -0.004546058431 9.652486842e-23)
(-0.002233530708 -0.002507490581 -3.986111384e-25)
(-0.0001819262109 -0.0005025695969 4.086641535e-25)
(8.341282819e-05 0.0006097690343 0)
(-0.000418786601 0.002934740744 -2.917122335e-25)
(-0.004647363999 0.008802996389 1.711054927e-23)
(-0.01137064057 0.01323887973 -8.194082745e-24)
(-0.01932502933 0.01579022 -2.060717915e-25)
(-0.02747092214 0.0165281469 2.024439799e-25)
(-0.03511376961 0.01564274608 8.363141045e-27)
(-0.04170878853 0.01335866247 -1.269740017e-24)
(-0.04683064887 0.009918941068 -4.583201209e-25)
(-0.05014467391 0.005602159623 -1.065732499e-23)
(-0.05140720938 0.0007447186439 0)
(-0.05047317888 -0.004240970848 0)
(-0.04733289216 -0.008885972163 2.673973593e-23)
(-0.04215584678 -0.01268030823 2.815929563e-23)
(-0.03531176588 -0.01513453678 -1.648209962e-24)
(-0.02738818041 -0.01586052745 4.85296533e-23)
(-0.01916901786 -0.01467229661 9.43342678e-23)
(-0.01156044429 -0.01169299663 3.990955504e-23)
(-0.005465307318 -0.007450588487 4.192169543e-25)
(-0.001451143433 -0.002936223587 1.047606369e-25)
(-9.072778131e-05 0.0002256480697 0)
(-0.0005023998149 0.006044640339 -4.25691206e-23)
(-0.006401954382 0.01636879886 -1.701261033e-23)
(-0.01553312095 0.02355652598 8.120966867e-24)
(-0.02627593854 0.02743841495 0)
(-0.03728303221 0.02831782395 0)
(-0.04768483327 0.02658489174 0)
(-0.05679021827 0.02262900966 -4.629199001e-26)
(-0.06404685091 0.01683473336 -2.107862328e-24)
(-0.06900357108 0.009621765952 0)
(-0.07130112306 0.001491591764 1.642827386e-24)
(-0.07070178387 -0.006935095611 2.807458545e-25)
(-0.06712431665 -0.0149280782 -2.815319367e-25)
(-0.06069387533 -0.02166471443 0)
(-0.05180336443 -0.02631333444 4.140130725e-23)
(-0.0411468646 -0.02815815272 -4.688474335e-23)
(-0.0297176847 -0.02677163266 -2.769773305e-23)
(-0.01873602909 -0.02221390017 -3.976349212e-23)
(-0.009487533237 -0.01521857542 7.795020659e-25)
(-0.00297677049 -0.007298177869 9.772551067e-23)
(-0.0002318660919 -0.0008663895699 0)
(-0.0005315402239 0.01009379881 4.277623361e-23)
(-0.00798260238 0.02594905209 4.771236235e-25)
(-0.01939451349 0.03642447171 -4.662262277e-25)
(-0.03281991064 0.04185033448 0)
(-0.04664146056 0.04289006975 7.767042579e-25)
(-0.05984552461 0.0401965431 -7.659349866e-25)
(-0.07162506903 0.03434418421 3.666770257e-23)
(-0.08131892696 0.02585463489 1.842393383e-23)
(-0.08835704939 0.0152723447 6.222239205e-24)
(-0.09224573664 0.003246891752 -1.644741303e-24)
(-0.09259520503 -0.009405801097 0)
(-0.08916765744 -0.02167168628 4.381069287e-25)
(-0.08195287169 -0.03236362008 1.01271131e-23)
(-0.07126312062 -0.04020834167 -4.356610272e-23)
(-0.05781576006 -0.04401642668 1.9375199e-24)
(-0.042782715 -0.04294482187 4.232880409e-23)
(-0.027752587 -0.03683091777 -3.86693808e-25)
(-0.0145496708 -0.02652575481 0)
(-0.004859165962 -0.01408409407 5.43576902e-23)
(-0.0003641159968 -0.002847064574 -2.563106439e-22)
(-0.0005271544921 0.01499746138 9.831893332e-23)
(-0.009376825667 0.03738572784 -4.90058879e-25)
(-0.02287920185 0.05169614227 0)
(-0.03882608303 0.05893512184 0)
(-0.05538052712 0.06024922321 -8.726496524e-23)
(-0.07142121894 0.05661331429 -8.493259828e-23)
(-0.08605776725 0.04879729778 -4.061473543e-23)
(-0.09854120229 0.03743704757 -1.501458649e-23)
(-0.1081843669 0.02315889014 -5.354176268e-24)
(-0.1143341931 0.006710565036 -8.165520891e-24)
(-0.11639461 -0.01093031514 6.590768479e-24)
(-0.1138843616 -0.02848538127 8.807248838e-24)
(-0.1065402813 -0.04436531544 -1.891854277e-23)
(-0.09446086246 -0.05674760835 4.525210378e-24)
(-0.07826282996 -0.06377724905 0)
(-0.05922474814 -0.06392980358 -1.58114815e-23)
(-0.03933710146 -0.05653412579 -2.162813916e-26)
(-0.02114045585 -0.04235550288 0)
(-0.007318210732 -0.02398116612 -1.518767165e-22)
(-0.0005215661824 -0.005925454277 6.052201364e-22)
(-0.0004990341651 0.02064329853 -9.76493462e-23)
(-0.01052841517 0.0504484841 2.830829787e-22)
(-0.02582693007 0.06911724549 1.526271941e-22)
(-0.04401697278 0.07848398614 3.617457225e-24)
(-0.06310124204 0.08028645834 -7.318338785e-23)
(-0.08189633285 0.0758731891 9.037321553e-23)
(-0.09946861952 0.0662113034 -3.588150021e-24)
(-0.1150127493 0.05201336544 -1.727977445e-24)
(-0.1277413183 0.03392222434 2.522347207e-24)
(-0.136836422 0.01270323619 7.373770321e-24)
(-0.1414603495 -0.01058477098 -6.491073994e-24)
(-0.1408146143 -0.03445531742 -9.76672796e-24)
(-0.134265238 -0.05692133256 -3.261449447e-23)
(-0.1215368306 -0.07552587199 -3.647956811e-23)
(-0.1029605098 -0.08753507859 5.61837498e-25)
(-0.07975857008 -0.09038507246 0)
(-0.05426337935 -0.08243933668 0)
(-0.02986971622 -0.06397334432 -2.902990079e-24)
(-0.01066216383 -0.03798589783 2.967371143e-24)
(-0.0007350279188 -0.01050049682 1.027751628e-22)
(-0.0004478966256 0.02686946943 0)
(-0.01134826761 0.06480035777 2.001767717e-22)
(-0.02801361158 0.0882866192 8.961277357e-23)
(-0.04799454143 0.1001131236 0)
(-0.06920034673 0.1026976633 1.569239113e-22)
(-0.09043656398 0.09780707794 0)
(-0.1107747454 0.08660425497 -1.427913195e-22)
(-0.1293999924 0.0698350867 6.512913322e-24)
(-0.1454671364 0.04808049047 0)
(-0.1580248357 0.0220183569 0)
(-0.1660030079 -0.007331123381 -1.373608917e-24)
(-0.168257143 -0.03838283101 -9.308700444e-25)
(-0.1636970909 -0.06883236364 1.490919393e-22)
(-0.1515124439 -0.0955741016 -4.704111152e-23)
(-0.1315062738 -0.1148206632 -2.557798359e-24)
(-0.1045539458 -0.1225614348 1.531653606e-24)
(-0.07308953329 -0.1155440928 -1.555814356e-24)
(-0.04134793888 -0.09282547081 0)
(-0.01525143262 -0.05740448932 3.202079341e-24)
(-0.001044228204 -0.0171463363 -1.012458608e-21)
(-0.0003744815588 0.03345951729 0)
(-0.01174934938 0.07998087322 -1.127737896e-22)
(-0.02920523434 0.1086281256 -6.189669523e-22)
(-0.05031424628 0.1232115204 -3.754475607e-22)
(-0.07295859144 0.1268982779 0)
(-0.09598375265 0.1219156069 4.118453279e-22)
(-0.1185204338 0.1096270887 1.260505281e-22)
(-0.1398069093 0.09077731854 -5.580105318e-24)
(-0.159013866 0.06581165812 5.552486796e-24)
(-0.1751375098 0.03520944388 0)
(-0.1869473376 -0.0001933331989 2.911278741e-23)
(-0.1930087534 -0.03889161295 4.69389253e-24)
(-0.1917728472 -0.07843084285 -1.076220284e-22)
(-0.1817798938 -0.1151769201 7.998641455e-23)
(-0.1620503517 -0.1442494436 -2.418492347e-22)
(-0.1327006636 -0.1598443404 0)
(-0.09577478629 -0.1563017774 0)
(-0.0560138406 -0.1302906915 0)
(-0.02147757665 -0.08380687664 0)
(-0.001500289046 -0.02665385089 5.569795391e-22)
(-0.0002874431771 0.04015694023 0)
(-0.01169324448 0.09542706085 -3.492256176e-22)
(-0.02924332778 0.129395401 8.931082381e-22)
(-0.05060750469 0.14691696 3.6163753e-22)
(-0.07369789935 0.1519624159 0)
(-0.09744769946 0.1472649594 -3.861614777e-22)
(-0.1211024435 0.1344107354 -3.173706515e-23)
(-0.1440274052 0.1141337141 3.332410303e-22)
(-0.1655089129 0.0866975028 1.769100774e-22)
(-0.1846192724 0.05229173163 -4.059299609e-23)
(-0.2001269553 0.01142055994 1.656682132e-23)
(-0.2104566537 -0.0347082304 -8.262934828e-24)
(-0.2137153538 -0.08375739663 3.371048315e-22)
(-0.2078162117 -0.1318656393 0)
(-0.1908188125 -0.1732644542 2.419660766e-22)
(-0.1616290695 -0.2002477929 5.770954907e-24)
(-0.1211626404 -0.2040012711 -5.857016933e-24)
(-0.07384748667 -0.1772030208 1.547212014e-22)
(-0.02971678865 -0.1188584459 -5.431750224e-24)
(-0.002179436998 -0.04005210475 0)
(-0.0002118100181 0.04671248173 0)
(-0.01125009095 0.1105404806 0)
(-0.02815616114 0.1497230966 -5.021869686e-22)
(-0.04874436811 0.1701382879 -1.880687776e-23)
(-0.0710000293 0.1766127745 2.038016695e-23)
(-0.09399329608 0.172441429 -2.013953465e-23)
(-0.1171419334 0.1594783936 -2.316448553e-23)
(-0.1400163126 0.138474779 -3.029188537e-22)
(-0.1621312355 0.109513488 6.698198056e-23)
(-0.1827943116 0.07245237077 4.51221523e-23)
(-0.2009820298 0.02735264385 -4.576727238e-23)
(-0.2152255009 -0.02508110251 0)
(-0.2235545714 -0.0829755211 -7.836130622e-23)
(-0.2234613103 -0.1427160209 0)
(-0.2120657117 -0.1981710975 -3.738736276e-22)
(-0.1867409863 -0.2400656788 5.243460484e-22)
(-0.146441414 -0.2560658232 0)
(-0.09394376696 -0.2331109144 -1.492795415e-22)
(-0.04021900296 -0.1639544371 1.936312076e-22)
(-0.00320098537 -0.05860816336 -3.41029653e-22)
(-0.0002016622955 0.05297210702 0)
(-0.01067315761 0.124808155 9.181695527e-22)
(-0.02628544048 0.1687302454 -2.440347328e-23)
(-0.04501235436 0.1916321726 9.192141584e-22)
(-0.06494745711 0.1992792904 -2.51172451e-23)
(-0.08536794779 0.1955993837 2.838409505e-23)
(-0.1059324417 0.182780227 -2.812499531e-23)
(-0.1264945711 0.1616529273 -1.660661397e-23)
(-0.1469021565 0.1321739499 -5.259431648e-22)
(-0.166848592 0.09389717881 -8.905273174e-24)
(-0.1857332818 0.04640913077 9.658775376e-24)
(-0.2024811812 -0.01023225868 3.312665188e-22)
(-0.2154182281 -0.07499080091 -5.819893156e-22)
(-0.2220231588 -0.1450223372 0)
(-0.2188045482 -0.2146660611 8.885749283e-22)
(-0.2016261098 -0.2739908046 -4.939483171e-22)
(-0.1668634222 -0.3075700818 -1.571773577e-23)
(-0.1140210869 -0.2953709154 0)
(-0.05288408292 -0.2195726094 -1.888966599e-22)
(-0.004749078794 -0.08376979585 3.359375675e-22)
(-0.0003643426934 0.05901986306 1.550823224e-23)
(-0.01049671472 0.1379798504 -8.763077431e-22)
(-0.0244159008 0.1856690415 -1.156933584e-21)
(-0.04027020368 0.2101259312 -8.627864116e-22)
(-0.05631108229 0.2182228211 0)
(-0.07215307751 0.2146086952 3.513352708e-23)
(-0.08779738777 0.2018714374 -7.293925053e-23)
(-0.1034620671 0.1809958042 5.867130165e-23)
(-0.1194047349 0.1518980174 3.020949033e-22)
(-0.1357999567 0.1139161635 -1.128056849e-23)
(-0.1526153188 0.06621772778 0)
(-0.1694592309 0.008182516707 -3.603474431e-22)
(-0.1852828155 -0.06015320647 7.51485937e-22)
(-0.1980508811 -0.1372670556 8.830860677e-22)
(-0.2043595039 -0.2189177561 -5.295833512e-22)
(-0.1991011521 -0.2959621447 5.162005533e-22)
(-0.1760623348 -0.3513975753 1.077832392e-23)
(-0.1300895211 -0.3584055738 -1.095141002e-23)
(-0.06688778844 -0.2843199553 -8.226420007e-23)
(-0.007083237913 -0.1169931247 0)
(-0.0009097347758 0.06539775694 -1.911291132e-23)
(-0.01167725885 0.1502746171 -1.326844003e-21)
(-0.02389172004 0.200056041 1.094119415e-21)
(-0.03601784876 0.2244105705 6.734297741e-22)
(-0.04657891683 0.2316480563 6.014051928e-22)
(-0.05577740264 0.227230202 6.643292296e-22)
(-0.06412045904 0.2141707456 -4.458192195e-23)
(-0.07228442115 0.1936455468 -3.460995944e-22)
(-0.08097915324 0.1656017922 2.151956662e-22)
(-0.09088175236 0.1292722651 0)
(-0.1025647517 0.08353442034 0)
(-0.1163721234 0.02720516754 2.655197575e-22)
(-0.1321684483 -0.04061412027 8.194817995e-23)
(-0.1489339352 -0.1200064376 -2.82121694e-22)
(-0.1641359141 -0.2089233896 -5.410821399e-23)
(-0.1727936011 -0.3006922178 1.302027701e-22)
(-0.1670350323 -0.3793253685 -3.399933413e-22)
(-0.1365311737 -0.4136373925 -1.598878755e-23)
(-0.08018291437 -0.3538256864 8.215177514e-23)
(-0.01050759898 -0.159409701 -6.033030297e-22)
(-0.002260655629 0.07348700395 0)
(-0.01580514122 0.1626468193 2.145690504e-21)
(-0.02665396164 0.2117825112 0)
(-0.03422894095 0.2333855268 -1.351692981e-21)
(-0.03760135445 0.2377676503 6.184540718e-23)
(-0.03800575283 0.2312476454 -6.192471924e-22)
(-0.03669271923 0.2171842963 -4.755860289e-22)
(-0.03490125082 0.1968904304 8.300485294e-22)
(-0.03379977502 0.1703337347 -1.885516218e-22)
(-0.0345103293 0.1367238605 0)
(-0.03812718739 0.09480025131 0)
(-0.04566102406 0.04304753513 2.410863937e-23)
(-0.05791856393 -0.02013258345 -6.006786867e-22)
(-0.07515567665 -0.09620122958 -4.309268015e-22)
(-0.09646030554 -0.1855505143 4.637626024e-22)
(-0.1183533058 -0.2853517748 -6.488134684e-22)
(-0.1332767451 -0.3838334217 9.118199086e-23)
(-0.1265381693 -0.4504303402 2.942630523e-23)
(-0.08899260165 -0.4198481891 5.660781689e-22)
(-0.01526923926 -0.2111689514 6.021661399e-22)
(-0.005181034664 0.08597953849 0)
(-0.02525713033 0.1766256509 1.465618286e-22)
(-0.03483782959 0.2205904662 -4.916802885e-23)
(-0.03640615244 0.235479003 7.642340442e-22)
(-0.03019293529 0.234333664 -7.004807476e-22)
(-0.01917564385 0.2241543094 4.746097692e-23)
(-0.005626163728 0.2083481601 -1.018568527e-22)
(0.00855783568 0.1881217308 -3.389592781e-22)
(0.02178671153 0.1633908446 2.062671782e-22)
(0.03261580965 0.1333258765 0)
(0.03957303462 0.09664392937 0)
(0.04115928569 0.0517445489 -2.902492584e-22)
(0.03577477948 -0.003251083709 0)
(0.02197269967 -0.07057937628 -5.511972081e-22)
(-0.001272925946 -0.1525697232 -1.491719187e-23)
(-0.0331114997 -0.2505915874 2.559537164e-23)
(-0.06909779075 -0.3599308755 2.202755267e-22)
(-0.09228182678 -0.4575392575 4.790030974e-24)
(-0.0871823462 -0.4698093624 -5.78977723e-22)
(-0.02103142254 -0.2698948938 0)
(-0.01111638696 0.1085974143 0)
(-0.04249034583 0.1947135308 -8.84794429e-22)
(-0.04795857416 0.2258161578 -5.410784659e-22)
(-0.03920083675 0.2282089653 4.543583686e-22)
(-0.01878588079 0.2182278987 -1.710126259e-24)
(0.007654961424 0.2028175968 -4.560756357e-23)
(0.03666933921 0.1847586584 5.696254922e-22)
(0.06581866766 0.164709896 -2.766691568e-23)
(0.09325977305 0.1423124816 -2.069628338e-22)
(0.1173779116 0.1166286196 3.142014071e-23)
(0.136535561 0.08641373046 -3.425726086e-23)
(0.1489571933 0.05017973725 -3.690427276e-23)
(0.1525189061 0.006162522134 3.205503125e-22)
(0.1449291507 -0.0479580536 6.119370315e-22)
(0.1235094651 -0.1153025403 -5.100979536e-22)
(0.08632996514 -0.2004174063 -1.615968434e-22)
(0.03198619968 -0.3067789905 1.531365344e-22)
(-0.02362458618 -0.4239820363 7.293784139e-23)
(-0.06492549539 -0.4871593703 1.913304639e-21)
(-0.02509990477 -0.3291529814 2.955006221e-21)
(-0.02004675531 0.1460731849 -4.390058388e-23)
(-0.06416467237 0.2112953063 4.417230256e-23)
(-0.05070426524 0.2177285634 1.000148177e-21)
(-0.01934464344 0.2014655031 -8.266282743e-24)
(0.02413915656 0.1809046485 0)
(0.07153404968 0.1606904629 4.363446447e-23)
(0.1190618958 0.1416472563 -2.273696334e-22)
(0.1644674877 0.1233167472 -9.027312686e-23)
(0.2062155734 0.1048113118 3.680472947e-23)
(0.2429549633 0.08507196464 -1.701549306e-23)
(0.2732120318 0.06296285118 3.429779168e-23)
(0.2952458317 0.03726485395 -6.592362637e-23)
(0.3066903355 0.00653721385 -9.303521833e-23)
(0.3049681231 -0.03087563407 1.516988162e-22)
(0.2863889816 -0.07786119544 0)
(0.2470531095 -0.1399288529 1.505513868e-22)
(0.1810892294 -0.2266294368 2.56000915e-22)
(0.09604226577 -0.3443888339 0)
(-0.006698759749 -0.4552203169 -3.675654119e-21)
(-0.01922426922 -0.3777531062 -2.892635085e-21)
(-0.02591937483 0.2276833466 -9.514109601e-22)
(-0.0399830259 0.2238219739 -1.388940911e-22)
(0.03656112689 0.1810582512 -2.335482988e-22)
(0.1090490769 0.1451050192 -1.193684927e-22)
(0.1817165954 0.1172432673 -4.29564844e-23)
(0.249005173 0.09627771836 9.782543716e-23)
(0.3100285713 0.08002394449 -1.4084912e-22)
(0.3646149688 0.06656737732 1.29708278e-22)
(0.4126188369 0.05449150302 -8.619512451e-23)
(0.4536186168 0.04270915809 1.132173837e-25)
(0.4867818566 0.03032360891 1.527659652e-23)
(0.5107398252 0.01652992349 7.996814031e-23)
(0.5236553647 0.0005374764948 -1.811048687e-22)
(0.523176463 -0.01863279694 -1.617090078e-22)
(0.5052298895 -0.04286403474 -4.262676307e-23)
(0.4658697828 -0.07633183828 0)
(0.3952684003 -0.1286087902 -1.846503893e-22)
(0.2916061638 -0.2208467675 8.148787141e-22)
(0.1197449403 -0.3525016511 1.631605905e-21)
(0.02670532836 -0.3775497127 2.172657892e-21)
(0.2142895904 0.1347448607 9.864884374e-22)
(0.2776315656 0.09870521498 0)
(0.4316597274 0.0581042322 -2.594243951e-22)
(0.5304751418 0.03846262066 -1.741600614e-22)
(0.6016961989 0.02623407745 0)
(0.6571187994 0.01831909072 -6.008698246e-23)
(0.701519584 0.01313588503 6.377517508e-23)
(0.7376019643 0.009542058889 -1.800008264e-23)
(0.7669342911 0.006804472552 2.885745197e-23)
(0.7902081244 0.004464829089 2.314867336e-23)
(0.8074532098 0.002221465451 0)
(0.8182602766 -0.0001498921858 -2.872881297e-23)
(0.8216486488 -0.002723656473 0)
(0.8162386528 -0.005712524103 2.737981373e-23)
(0.799132989 -0.009611297819 1.421590192e-23)
(0.7679986023 -0.01500252835 -5.799482696e-23)
(0.710655656 -0.02502523738 -2.535675808e-22)
(0.6235184496 -0.04204289856 -6.918120269e-22)
(0.4230090964 -0.09182972687 0)
(0.2705674551 -0.152402205 -2.119485708e-21)
)


// ************************************************************************* //
