/*--------------------------------*- C++ -*----------------------------------*\
  =========                 |
  \\      /  F ield         | OpenFOAM: The Open Source CFD Toolbox
   \\    /   O peration     | Website:  https://openfoam.org
    \\  /    A nd           | Version:  13
     \\/     M anipulation  |
\*---------------------------------------------------------------------------*/
FoamFile
{
    format      ascii;
    class       scalarField;
    location    "49";
    object      p_all;
}
// * * * * * * * * * * * * * * * * * * * * * * * * * * * * * * * * * * * * * //


400
(
1.459074243e-07
-0.00053011493
-0.001177898693
-0.00168013746
-0.001916849637
-0.001838530583
-0.001420503841
-0.0006516472721
0.0004591067065
0.001867565116
0.003479175326
0.005142740435
0.006661496399
0.007824899312
0.008459136717
0.008483857327
0.00795550179
0.007081093389
0.006193833053
0.005639615821
0.0005381305037
-1.08022619e-05
-0.0005832499862
-0.0009846261653
-0.00116292206
-0.001091200374
-0.0007480750611
-0.0001182557653
0.0007988140087
0.001974088643
0.003333918005
0.004752901098
0.006061236627
0.007073198188
0.007633053477
0.007667412109
0.007223586993
0.00647453435
0.005682465978
0.005118688112
0.001211208607
0.0005246640975
-8.023807632e-05
-0.0004464163404
-0.0006095020984
-0.0005769592611
-0.0003331866958
0.0001446829249
0.000873408926
0.001845828796
0.003012331056
0.004269130455
0.005461348219
0.00640773387
0.00694623974
0.006988857969
0.006562506874
0.005808147087
0.004931367676
0.00419715539
0.00169505052
0.0008098281662
8.683368413e-05
-0.0003227600441
-0.0005337263804
-0.0005864000072
-0.0004686527879
-0.0001452665541
0.000423014179
0.001256297382
0.002330415137
0.00355776224
0.004783652135
0.005807471819
0.006430586136
0.006520817487
0.006066758028
0.005182369943
0.004053348855
0.003016744639
0.001733207079
0.0006471991078
-0.0002198531061
-0.0007170943952
-0.001026674215
-0.001214087747
-0.001264563456
-0.001124267351
-0.0007245115472
-1.056032025e-05
0.001025484556
0.002316031836
0.003703489214
0.004954676802
0.005809199071
0.006057274137
0.00561841624
0.004567076511
0.00308886312
0.001653924592
0.001112959288
-0.0001517999417
-0.001164171838
-0.001778937156
-0.00223489323
-0.002614529373
-0.002894081931
-0.002994703843
-0.002810336623
-0.002240921911
-0.001233020894
0.0001803053754
0.001847612134
0.003500205453
0.004793485627
0.00539794549
0.005113422156
0.003936482974
0.002049748327
0.0001182498231
-0.0003443715679
-0.001755417196
-0.002906107724
-0.003665691459
-0.004319881883
-0.004961918067
-0.005554821955
-0.005989817597
-0.006115353192
-0.005772023796
-0.004839325586
-0.003291625852
-0.001246685325
0.001003134207
0.003013978425
0.004286467273
0.004423400514
0.003264854726
0.0009508754871
-0.001588280641
-0.002775856912
-0.004294471624
-0.005572388365
-0.006503429563
-0.007411829679
-0.008398609578
-0.009413094798
-0.01031485026
-0.01090039309
-0.0109361157
-0.01020822172
-0.008591114134
-0.006125945872
-0.003091253242
-2.409896313e-05
0.002358973662
0.003358681457
0.002521780564
-0.0001584591223
-0.003417345336
-0.006264973427
-0.007847769724
-0.009236162271
-0.01035865912
-0.01157231481
-0.01298757724
-0.01454452866
-0.01607410693
-0.01731868095
-0.01795815813
-0.01765775285
-0.01614562414
-0.01332170396
-0.009381291587
-0.004908830395
-0.0008572483423
0.001655065603
0.001675490351
-0.001157587592
-0.005212797274
-0.01083189165
-0.01243121918
-0.0139005626
-0.01521215301
-0.01675601496
-0.01866008124
-0.02086519761
-0.02318209238
-0.02530288596
-0.02681582957
-0.02724416128
-0.02612554923
-0.02314819099
-0.0183222709
-0.01217864199
-0.005860994563
-0.0009928204017
0.0007139525447
-0.00180404426
-0.00662343627
-0.01643364491
-0.01799644529
-0.0194905094
-0.02093943843
-0.02277842664
-0.02517003771
-0.0280711072
-0.03128455796
-0.03446159106
-0.03710275381
-0.038582126
-0.0382170954
-0.0354310014
-0.02992979563
-0.0220411638
-0.0129585992
-0.004798103921
-0.000281365086
-0.001654915353
-0.006971262498
-0.02298345639
-0.02444608176
-0.0258588611
-0.02730558207
-0.0293018359
-0.03207469676
-0.03561555453
-0.03973168045
-0.04404351558
-0.04797388869
-0.05075810207
-0.05150054519
-0.04928708025
-0.04347416918
-0.03401203486
-0.02191101968
-0.009607480535
-0.0009606568218
6.625472812e-05
-0.005056023112
-0.03040072657
-0.03167162268
-0.03280886485
-0.03397707567
-0.03584750741
-0.03875716245
-0.04274886902
-0.04763853884
-0.05301845954
-0.05824071131
-0.06241317677
-0.06443566081
-0.06310602009
-0.05736010392
-0.04665836728
-0.03157318214
-0.01452854085
-0.0004039897031
0.004703456389
0.001123539777
-0.03871342981
-0.03961897444
-0.04012753045
-0.04054514386
-0.04183314269
-0.04449412082
-0.04862584087
-0.05403844585
-0.06028066455
-0.06662629928
-0.07206180812
-0.07530553706
-0.07489233185
-0.06937257464
-0.0576824635
-0.03977033052
-0.01764064979
0.003230960953
0.01452184797
0.01472668673
-0.04826129398
-0.0483912545
-0.04761988304
-0.04655012738
-0.04662902948
-0.04855938795
-0.05245985665
-0.0580887535
-0.06490986271
-0.07208855989
-0.07847555523
-0.08261292372
-0.08279774301
-0.07724737781
-0.06442309648
-0.04360418715
-0.01604072031
0.01286747449
0.03297128808
0.04029053761
-0.06004267476
-0.05841580521
-0.05515245105
-0.05151791353
-0.04964260307
-0.050357469
-0.05369243389
-0.05926628587
-0.06639019842
-0.07407027092
-0.08098586255
-0.08548258441
-0.08561769312
-0.079299652
-0.06457711226
-0.04012911374
-0.006309831497
0.03226292802
0.06446178988
0.08325684075
-0.07630475165
-0.07075957561
-0.06269476364
-0.05500300564
-0.05041607782
-0.04954452537
-0.05210964199
-0.05746346485
-0.06468163243
-0.0725539332
-0.07954880906
-0.08378448051
-0.0830496238
-0.07490970885
-0.05697626531
-0.02733987712
0.01456491221
0.06548607056
0.1143813542
0.150181139
-0.1042037881
-0.08796827709
-0.07000528796
-0.05628335409
-0.04838369603
-0.04579635477
-0.04761235822
-0.05276330139
-0.06000299825
-0.0678689339
-0.0746119869
-0.07812380048
-0.07591695725
-0.06515184906
-0.04284396301
-0.006177978246
0.04678603474
0.1153479234
0.1914985775
0.2583076142
-0.1760015821
-0.1149110117
-0.07361913398
-0.05188949879
-0.04118013063
-0.03758145928
-0.03930371432
-0.04476828811
-0.05236216918
-0.06041076464
-0.0670283802
-0.06996554975
-0.06654459263
-0.05359046569
-0.0273777416
0.01642962807
0.08276585124
0.1774099757
0.3054550613
0.4527088896
-0.3558724055
-0.1552746903
-0.07044206495
-0.04278265978
-0.03134964393
-0.02760785494
-0.02979754765
-0.0359931125
-0.04424979099
-0.05276482278
-0.05962327007
-0.06256413172
-0.05886042158
-0.04518318179
-0.01724272398
0.03082876677
0.1084483133
0.2333851583
0.4348309447
0.7358952519
)


// ************************************************************************* //
