/*--------------------------------*- C++ -*----------------------------------*\
  =========                 |
  \\      /  F ield         | OpenFOAM: The Open Source CFD Toolbox
   \\    /   O peration     | Website:  https://openfoam.org
    \\  /    A nd           | Version:  13
     \\/     M anipulation  |
\*---------------------------------------------------------------------------*/
FoamFile
{
    format      ascii;
    class       surfaceScalarField;
    location    "49";
    object      phi;
}
// * * * * * * * * * * * * * * * * * * * * * * * * * * * * * * * * * * * * * //

dimensions      [0 3 -1 0 0 0 0];

internalField   nonuniform List<scalar> 
760
(
4.684900856e-06
-4.68558017e-06
-3.887096059e-05
4.355571565e-05
-0.00013182654
9.295614393e-05
-0.000258192477
0.0001263666071
-0.0004019854347
0.0001437936423
-0.0005497716295
0.0001477852757
-0.000689621582
0.000139850568
-0.0008097359343
0.000120114797
-0.0008978806768
8.814425729e-05
-0.0009420968016
4.421535684e-05
-0.0009326350406
-9.462192727e-06
-0.0008647500265
-6.788632125e-05
-0.0007415246924
-0.0001232256457
-0.0005757670204
-0.0001657563212
-0.0003898125301
-0.0001859538216
-0.0002124299849
-0.0001773835934
-7.283978705e-05
-0.0001395911949
7.195838781e-06
-8.00352014e-05
2.282441998e-05
-1.562761289e-05
2.282405836e-05
-4.742108556e-05
4.273574672e-05
-0.0002104582377
0.0002065942331
-0.0004755796467
0.0003580798068
-0.0008100540524
0.0004608397975
-0.001179421768
0.0005131631706
-0.001551981873
0.0005203446561
-0.001898074768
0.0004859434309
-0.002188643744
0.0004106826753
-0.002395141038
0.0002946397621
-0.002491596757
0.0001406689409
-0.002458690438
-4.236849985e-05
-0.002288917787
-0.0002376596302
-0.001991612496
-0.0004205314391
-0.00159592055
-0.00056144709
-0.001150006198
-0.0006318672667
-0.0007149337772
-0.0006124571111
-0.0003529142092
-0.0005016119735
-0.000111400601
-0.0003215481549
-5.725268576e-06
-0.0001213031178
1.709970254e-05
-0.0001124310497
0.0001551675843
-0.0004075542321
0.0005017169281
-0.0008389935381
0.0007895195179
-0.001357382933
0.0009792286254
-0.001915508564
0.001071290041
-0.002469636181
0.00107446965
-0.00297822746
0.000994532855
-0.003400749157
0.000833203342
-0.003698238961
0.0005921284191
-0.003836228889
0.0002786560168
-0.003789698701
-8.889964758e-05
-0.003549137142
-0.0004782204278
-0.003126404642
-0.0008432616677
-0.002558652117
-0.00112919717
-0.001908213861
-0.001282305031
-0.001256254825
-0.001264416751
-0.0006888511049
-0.001069014567
-0.0002767020054
-0.0007336943395
-5.332905316e-05
-0.0003446758859
-3.622684003e-05
-0.0001743244999
0.0003294923516
-0.0005970189066
0.0009244125306
-0.001185483321
0.001377983269
-0.001871304416
0.001665047348
-0.002596084586
0.001796068757
-0.003307842095
0.001786225613
-0.003957729229
0.001644419548
-0.004498244321
0.001373716681
-0.004883758298
0.0009776397072
-0.005073491807
0.0004683877788
-0.005036520165
-0.0001258693997
-0.004758128141
-0.0007566098013
-0.00424665271
-0.001354734974
-0.003539407342
-0.001836441385
-0.002705414272
-0.002116298139
-0.001841569311
-0.002128260931
-0.001058912098
-0.001851669044
-0.0004585977004
-0.001334006032
-0.0001036782835
-0.0006995933387
-0.0001399031994
-0.0002294098259
0.0005589017765
-0.0007673773985
0.001462376687
-0.001497977195
0.002108579499
-0.002334334273
0.002501401724
-0.003208364666
0.002670097152
-0.004062655172
0.00264051405
-0.004844565448
0.002426328453
-0.005503021489
0.002032171741
-0.005988134912
0.001462752236
-0.00625337625
0.0007336295331
-0.006259955632
-0.000119285551
-0.005983137635
-0.001033423018
-0.005420506091
-0.001917364552
-0.004601151432
-0.002655796452
-0.003593615917
-0.003123833569
-0.002507748944
-0.003214124852
-0.001483951542
-0.002875462926
-0.0006654306456
-0.002152526017
-0.0001585595683
-0.001206462184
-0.0002984638365
-0.000275799434
0.0008347014743
-0.0009118739734
0.002098448544
-0.00176445794
0.002961161358
-0.002731033614
0.003467974943
-0.003736083943
0.003675145768
-0.004719412506
0.003623840769
-0.005627606275
0.003334519288
-0.006408887247
0.002813451657
-0.007011092874
0.002064958612
-0.007382272092
0.001104810286
-0.007473813223
-2.774102686e-05
-0.007246209724
-0.001261023369
-0.006678824982
-0.002484748612
-0.005782985686
-0.00355163637
-0.00461721182
-0.00428960596
-0.00329853417
-0.004532798604
-0.001999462392
-0.004174532637
-0.0009188140654
-0.003233175366
-0.0002255078279
-0.00189976587
-0.000523974028
-0.0003115634338
0.001146263736
-0.001024192553
0.002811075187
-0.001973125934
0.003910092994
-0.003044114318
0.004538960431
-0.004156920234
0.004787949602
-0.005251180475
0.004718100534
-0.006275550985
0.004358887383
-0.007180408221
0.003718309056
-0.007913713729
0.002798267066
-0.008419461005
0.001610560949
-0.00863868961
0.00019149001
-0.008514405379
-0.001385306918
-0.008001284291
-0.002997870226
-0.007082658501
-0.004470262092
-0.005793753842
-0.005578508164
-0.004246347581
-0.006080202373
-0.002640996292
-0.00577988343
-0.001244188954
-0.004629984007
-0.0003139650159
-0.002829988475
-0.0008379390145
-0.0003347789771
0.001481041571
-0.001098217078
0.003574511766
-0.002112045572
0.004923920233
-0.003254410914
0.005681324555
-0.004443042703
0.005976579844
-0.005619863678
0.005894922127
-0.006738352262
0.005477373359
-0.00775418361
0.004734140103
-0.008618818385
0.003662904003
-0.009275433078
0.002267178603
-0.009657370021
0.0005734275484
-0.009690516953
-0.001352162407
-0.009301840792
-0.003386548526
-0.008437526348
-0.005334575713
-0.007093153952
-0.006922878206
-0.00535407381
-0.007819283342
-0.003432308
-0.007701650303
-0.001665787011
-0.006396504688
-0.0004342637523
-0.004061510525
-0.00127219943
-0.0003441994693
0.001825240853
-0.001129514924
0.004359826788
-0.002171364036
0.005965769238
-0.003343922525
0.006853883225
-0.004565180646
0.00719783611
-0.005781500107
0.007111242312
-0.00695381855
0.006649688603
-0.008046573918
0.005826894159
-0.009019211113
0.0046355408
-0.009819611704
0.003067579259
-0.01037950494
0.001133319729
-0.01061313657
-0.001118533747
-0.01042201372
-0.003577672619
-0.009710368065
-0.006046219164
-0.008418025332
-0.008215219669
-0.006575125153
-0.009662185158
-0.004371550173
-0.00990522538
-0.002201484012
-0.008566568768
-0.000597234023
-0.005665758543
-0.001869431203
-0.0003403572652
0.002165598448
-0.00111799936
0.00513746912
-0.00214743137
0.006995202713
-0.003301407535
0.008007859608
-0.004500011422
0.008396435855
-0.005695974868
0.0083072044
-0.006860208205
0.007813917479
-0.007969503617
0.006936187803
-0.008996487892
0.005662524167
-0.009901001689
0.003972091427
-0.01062249523
0.001854812207
-0.01107396052
-0.0006670675714
-0.01114102641
-0.003510603021
-0.01068905635
-0.006498184622
-0.009592112296
-0.009312163275
-0.007794626741
-0.01145967025
-0.005414065353
-0.01228578333
-0.002854958417
-0.01112567235
-0.0008135939615
-0.007707121472
-0.002683026305
-0.0003270446304
0.002492643522
-0.001071455958
0.005881880476
-0.002048163333
0.007971911418
-0.003129562629
0.009089258788
-0.004239636721
0.009506504526
-0.005339705602
0.009407270425
-0.006413237894
0.008887445857
-0.007452805317
0.007975755105
-0.008449259187
0.006658980135
-0.009381950589
0.004904783771
-0.01020903045
0.002681892484
-0.01085582569
-2.02696459e-05
-0.01120923885
-0.003157184966
-0.01110910449
-0.006598316844
-0.01036683661
-0.01005443417
-0.008819518449
-0.01300698756
-0.006454159153
-0.01465113732
-0.003603356637
-0.01397647118
-0.001092247287
-0.01021822954
-0.003775273101
-0.0003132280199
0.002805872429
-0.00100967634
0.006578329165
-0.001898746194
0.008860980754
-0.002852085128
0.01004259725
-0.003800553131
0.01045496873
-0.004717672885
0.01032438815
-0.005602661441
0.009772433273
-0.006466911161
0.008840006555
-0.00732333013
0.007515401062
-0.008176651656
0.005758105998
-0.009012699256
0.003517939315
-0.009786488451
0.0007535196174
-0.01040219876
-0.002541474691
-0.01070155463
-0.006298964841
-0.01045377581
-0.01030221815
-0.009388204681
-0.01407255949
-0.007313526052
-0.01672581266
-0.004380980719
-0.01690901476
-0.001436309333
-0.01316289734
-0.005211579174
-0.0003157626141
0.00312163559
-0.0009691600422
0.007231727145
-0.001746553066
0.009638371376
-0.002518147065
0.01081419014
-0.003228182221
0.01116500295
-0.003869136921
0.01096534187
-0.004460614232
0.01036390998
-0.005035508851
0.00941490344
-0.005630600788
0.008110493666
-0.006278491516
0.006405994378
-0.006998328563
0.004237773133
-0.007782804937
0.001537993878
-0.008577484142
-0.001746796972
-0.009254159261
-0.005622291631
-0.009579343902
-0.009977028485
-0.009205105519
-0.01444679302
-0.007746298768
-0.01818461501
-0.005063549946
-0.0195917637
-0.001835145717
-0.01639129877
-0.007046727078
-0.0003638439283
0.003485479335
-0.001008418426
0.00787630273
-0.001663298085
0.01029324895
-0.002200220826
0.01135111116
-0.002590960819
0.01155574307
-0.002858964737
0.01123334581
-0.003051038486
0.01055598134
-0.003223994625
0.009587857435
-0.003438042763
0.008324540554
-0.003752005167
0.006719956662
-0.00421742642
0.00470319692
-0.004868645417
0.002189216513
-0.005704601661
-0.0009108396718
-0.006656958196
-0.004669935397
-0.007539473992
-0.00909450372
-0.007989319946
-0.01399694444
-0.007462742212
-0.01871119106
-0.005459271918
-0.02159523335
-0.002250262353
-0.01960030836
-0.009296992903
-0.0005057827969
0.003991261757
-0.001211623017
0.00858214447
-0.001737665331
0.01081928984
-0.001974494176
0.01158793763
-0.001950384384
0.01153163197
-0.00173900001
0.01102196214
-0.001423293256
0.01024027509
-0.001085957614
0.0092505198
-0.000808214692
0.008046792153
-0.0006700994589
0.006581837026
-0.0007495617112
0.004782659941
-0.001118231496
0.002557888899
-0.001829994581
-0.0001990774509
-0.002894108889
-0.003605824585
-0.004218420717
-0.007770190103
-0.005508729015
-0.0127066409
-0.006155865262
-0.01806405521
-0.005305194605
-0.02244589983
-0.002592506688
-0.02231299399
-0.0118894928
-0.0008112418153
0.004802503284
-0.001675284954
0.009446188421
-0.002029939226
0.01117394302
-0.001845397003
0.01140339257
-0.001263416872
0.01094964802
-0.0004349682485
0.01019351138
0.0005120357821
0.009293270684
0.001469223715
0.008293333053
0.002339207059
0.00717681018
0.003028204363
0.005892842229
0.003440948198
0.004369920286
0.003478607298
0.002520230562
0.003041520745
0.0002380060504
0.002043916469
-0.002608221085
0.0004584927901
-0.006184767236
-0.001569386213
-0.01067876169
-0.003506775935
-0.01612665929
-0.004258036318
-0.02169463838
-0.002688559676
-0.02388247792
-0.01457805322
-0.001347829245
0.006150331868
-0.002415173352
0.01051353113
-0.002377861802
0.01113663257
-0.001483688092
0.01050921654
-8.933365366e-05
0.009555288714
0.001553632369
0.008550541679
0.003275708806
0.007571193757
0.004953304803
0.006615736526
0.006485071923
0.005645040311
0.00777583972
0.004602071431
0.008725531029
0.003420226349
0.009221900268
0.00202385787
0.009135965715
0.000323941452
0.008324326365
-0.001796570658
0.006647983102
-0.004508425537
0.004057843961
-0.008088624719
0.0008495295611
-0.01291834706
-0.001880547149
-0.01896456271
-0.002254446557
-0.02350857753
-0.01683249663
-0.002135122642
0.008285453809
-0.002919850803
0.01129825311
-0.001682304337
0.009899084457
0.0005428305881
0.008284085421
0.003126749827
0.006971371726
0.00577841531
0.005898876239
0.008344333298
0.005005274756
0.0107275139
0.004232554081
0.01285334338
0.003519209625
0.01464856427
0.002806853593
0.01602747931
0.002041315661
0.01688333524
0.001167998282
0.01707940884
0.0001278602007
0.01644437162
-0.00116153268
0.01476316422
-0.002827223368
0.01180171023
-0.005127158512
0.007468911987
-0.00858553881
0.002451481741
-0.01394712939
-0.000881966484
-0.02017513399
-0.01771446176
-0.002488342989
0.01077379676
-1.29701003e-05
0.00882287328
0.004177807478
0.005708295594
0.008329187627
0.004132701217
0.01212581757
0.003174740451
0.01553615936
0.002488533797
0.01856053786
0.001980894519
0.0212040052
0.001589083836
0.0234627282
0.001260484661
0.02531356505
0.0009560180043
0.02670935341
0.0006455276963
0.02757285682
0.0003044933729
0.02779170763
-9.099014838e-05
0.02720665292
-0.0005764753225
0.02558100155
-0.001201575533
0.02255343637
-0.002099592935
0.01762228017
-0.003654382713
0.0104034967
-0.006728341313
0.002476316483
-0.0122479497
-0.01523814563
0.01077379704
0.01959667377
0.02530497077
0.02943767138
0.03261241065
0.03510094427
0.03708183947
0.03867092336
0.03993140727
0.04088742545
0.04153295318
0.04183744511
0.04174645634
0.04116998191
0.03996840829
0.03786881727
0.03421443528
0.02748609467
0.01523814571
)
;

boundaryField
{
    movingWall
    {
        type            calculated;
        value           uniform 0;
    }
    fixedWalls
    {
        type            calculated;
        value           uniform 0;
    }
    frontAndBack
    {
        type            empty;
    }
}


// ************************************************************************* //
