/*--------------------------------*- C++ -*----------------------------------*\
  =========                 |
  \\      /  F ield         | OpenFOAM: The Open Source CFD Toolbox
   \\    /   O peration     | Website:  https://openfoam.org
    \\  /    A nd           | Version:  13
     \\/     M anipulation  |
\*---------------------------------------------------------------------------*/
FoamFile
{
    format      ascii;
    class       surfaceScalarField;
    location    "49";
    object      phi_0;
}
// * * * * * * * * * * * * * * * * * * * * * * * * * * * * * * * * * * * * * //

dimensions      [0 3 -1 0 0 0 0];

internalField   nonuniform List<scalar> 
760
(
-1.321873948e-05
1.321866157e-05
-7.201773133e-05
5.879899094e-05
-0.0001620727094
9.005498524e-05
-0.0002652228925
0.0001031502046
-0.0003682425802
0.0001030196861
-0.0004615044302
9.326180939e-05
-0.000537750088
7.624560987e-05
-0.0005912422014
5.349210717e-05
-0.0006175093996
2.626725152e-05
-0.0006135893957
-3.919924979e-06
-0.0005784600405
-3.512930347e-05
-0.0005138428139
-6.461722087e-05
-0.0004246595295
-8.918331828e-05
-0.0003192818041
-0.0001053777693
-0.0002092254184
-0.0001100564111
-0.0001081385627
-0.0001010868528
-2.992491486e-05
-7.821362437e-05
1.414944816e-05
-4.407434668e-05
2.190961854e-05
-7.760203277e-06
2.19095177e-05
-6.870330914e-05
8.192197179e-05
-0.0002457755498
0.0002358712182
-0.0004934732799
0.0003377526755
-0.0007722780021
0.0003819549215
-0.001050409589
0.0003811513346
-0.001303006354
0.0003458586618
-0.001510604444
0.0002838437345
-0.001657872485
0.0002007600898
-0.001733200053
0.000101594704
-0.001729305819
-7.814254893e-06
-0.001643831483
-0.0001206036588
-0.001481414065
-0.0002270345897
-0.001254381861
-0.0003162154552
-0.0009832948825
-0.0003764647202
-0.0006961416253
-0.0003972096925
-0.0004257314457
-0.000371497077
-0.0002049932009
-0.0002989519074
-5.981221454e-05
-0.0001892553906
-4.921425962e-07
-6.70803951e-05
2.141731321e-05
-0.0001229341853
0.0002048561599
-0.0004149723442
0.0005279094064
-0.0008086682699
0.0007314485841
-0.00124716533
0.0008204519282
-0.001684661834
0.0008186477957
-0.002084430675
0.0007456275145
-0.002416966162
0.0006163792871
-0.002658576822
0.0004423708222
-0.00279099218
0.0002340100896
-0.002802414105
3.607642077e-06
-0.002687902615
-0.0002351151898
-0.002452962025
-0.0004619752233
-0.002114172078
-0.0006550054198
-0.001700374522
-0.0007902622645
-0.001251822537
-0.000845761634
-0.0008167447693
-0.0008065747593
-0.0004446232744
-0.000671073275
-0.0001762319828
-0.0004576465732
-3.221219887e-05
-0.0002111002346
-1.079489992e-05
-0.0001720783689
0.0003769345089
-0.0005725607769
0.0009283918525
-0.001105967846
0.001264855698
-0.001698036583
0.001412520674
-0.002290597303
0.001411208475
-0.002837254762
0.001292284914
-0.003300217719
0.001079342204
-0.003648292541
0.0007904456466
-0.003856339458
0.0004420570326
-0.003905816679
5.30849066e-05
-0.003787748215
-0.000353183647
-0.003504025325
-0.0007456981335
-0.003071272896
-0.001087757878
-0.002522631203
-0.001338903966
-0.001907996445
-0.001460396347
-0.001290905709
-0.00142366538
-0.0007407542375
-0.00122122459
-0.0003202708203
-0.0008781298775
-7.110220661e-05
-0.0004602688769
-8.189710115e-05
-0.0002170221241
0.0005939566085
-0.0007188333139
0.001430203015
-0.001385655867
0.001931678276
-0.002127123705
0.002153988557
-0.002874374389
0.002158459188
-0.003573195689
0.001991106209
-0.004178979777
0.00168512626
-0.0046535849
0.001265050739
-0.004964199204
0.0007526713336
-0.005084017949
0.0001729036645
-0.004995023832
-0.0004421777455
-0.004691189503
-0.001049532465
-0.004183518617
-0.001595428797
-0.003504390237
-0.002018032396
-0.002710450486
-0.002254336118
-0.001881578161
-0.002252537656
-0.001113233259
-0.001989569396
-0.0005008210417
-0.001490542029
-0.0001191421175
-0.0008419478178
-0.0002010392041
-0.0002573667666
0.0008513233918
-0.0008513399301
0.002024176133
-0.001642296918
0.002722635235
-0.002526557606
0.003038249247
-0.00342690154
0.003058803148
-0.004283389203
0.002847593899
-0.005046215279
0.002447952346
-0.005671018695
0.001889854151
-0.006116752055
0.00119840469
-0.006345982515
0.0004021341251
-0.006327843914
-0.0004603163433
-0.006042476751
-0.001334899643
-0.005488324194
-0.002149581407
-0.00468998242
-0.002816374256
-0.003705727956
-0.003238590659
-0.002631183628
-0.003327082009
-0.001594227067
-0.003026525935
-0.0007363872507
-0.002348381827
-0.0001821206541
-0.001396214418
-0.0003831598406
-0.0002911841558
0.001142507578
-0.0009641253529
0.002697117336
-0.001864163946
0.003622673809
-0.002878145924
0.004052231205
-0.003923464962
0.00410412218
-0.004937002039
0.003861130985
-0.005865889334
0.003376839659
-0.006661002603
0.002684967442
-0.007273440323
0.001810842432
-0.007653973965
0.0007826677856
-0.007755806372
-0.0003584839281
-0.007539789116
-0.001550916912
-0.006984028128
-0.002705342443
-0.006095814901
-0.003704587563
-0.00492570466
-0.004408700983
-0.003579480224
-0.004673306494
-0.002220388423
-0.004385617753
-0.001050845751
-0.003517924506
-0.0002684678011
-0.00217859236
-0.000651627626
-0.000315965615
0.001458473188
-0.001048737675
0.00342988943
-0.002034531896
0.004608468042
-0.003154904049
0.005172603354
-0.004325133469
0.005274351587
-0.005481849705
0.005017847207
-0.006571932628
0.004466922577
-0.007544121443
0.003657156267
-0.008343811688
0.002610532705
-0.008911130858
0.001349986993
-0.009182806681
-8.680806891e-05
-0.009097013239
-0.001636710336
-0.008604584742
-0.003197770951
-0.007684199527
-0.004624972817
-0.006364068878
-0.005728831679
-0.004746043765
-0.006291331645
-0.003022882483
-0.006108779059
-0.001469581423
-0.00507122558
-0.0003882445684
-0.003259929204
-0.001039872187
-0.0003291956276
0.001787668794
-0.001096443085
0.004197136897
-0.002135079761
0.005647104735
-0.003325368525
0.006362892133
-0.004583651787
0.006532634846
-0.00584937358
0.006283568978
-0.007072575251
0.00569012422
-0.008203825101
0.0047884061
-0.009187258687
0.003593966298
-0.009956893997
0.002119622336
-0.01043606979
0.000392367779
-0.01054225008
-0.001530530002
-0.01019503534
-0.003544985664
-0.009334089534
-0.005485918615
-0.007946629357
-0.007116291868
-0.006105927049
-0.00813203397
-0.004012930434
-0.008201775695
-0.002014593083
-0.007069562943
-0.0005528022441
-0.004721720036
-0.001592674433
-0.0003297928737
0.002117461666
-0.001101701881
0.004969045889
-0.002151423418
0.006696826275
-0.003361077993
0.007572546722
-0.00465084576
0.007822402615
-0.005965957083
0.00759868028
-0.007263379648
0.006987546748
-0.008500566228
0.006025592647
-0.009627012083
0.004720412138
-0.01057860302
0.003071213286
-0.01127459556
0.001088360356
-0.01161814904
-0.001186976465
-0.01150162934
-0.003661505323
-0.01082052642
-0.006167021506
-0.009503001628
-0.008433816644
-0.007560609049
-0.01007442655
-0.005160873445
-0.01060151131
-0.002696115657
-0.009534320741
-0.0007741503595
-0.006643685333
-0.002366824801
-0.0003199349284
0.002437396608
-0.001066686735
0.005715797676
-0.002080423951
0.007710563491
-0.00324681466
0.008738937444
-0.00449230805
0.00906789601
-0.005770873459
0.008877245672
-0.007050316298
0.008266989556
-0.008300542338
0.007275818656
-0.009484302271
0.00590417205
-0.01054996277
0.004136873785
-0.01142562088
0.001964018469
-0.01201417236
-0.0005984249541
-0.01219379474
-0.003481882911
-0.01182096896
-0.006539847247
-0.01075537875
-0.009499406832
-0.008913750733
-0.01191605456
-0.006370857906
-0.01314440414
-0.003498965233
-0.01240621342
-0.001063151399
-0.00907949917
-0.003429976209
-0.0003074094165
0.00274480603
-0.001006587466
0.006414975711
-0.001938354789
0.008642330824
-0.002991898928
0.009792481607
-0.004102813393
0.01017881049
-0.005237448908
0.01001188119
-0.006378627945
0.009408168579
-0.007514083735
0.00841127443
-0.008627331694
0.007017419994
-0.009689844097
0.005199386174
-0.01065314227
0.002927316636
-0.01143756774
0.0001860005085
-0.0119294561
-0.002989994537
-0.0119649904
-0.006504312928
-0.01134373894
-0.01012065827
-0.009868967796
-0.01339082569
-0.007460114264
-0.01555325766
-0.004363834581
-0.0155024931
-0.001425535644
-0.01201779811
-0.004855511857
-0.0003089282562
0.003053734274
-0.0009555674189
0.007061614861
-0.001768490006
0.00945525343
-0.002639390493
0.01066338213
-0.00351826195
0.01105768198
-0.004389722513
0.01088334176
-0.005256719104
0.01027516517
-0.006129514418
0.009284069739
-0.007017706993
0.007905612558
-0.007923326539
0.006105005699
-0.008832213128
0.003836203199
-0.009704214422
0.00105800178
-0.01045072625
-0.00224348272
-0.01092411996
-0.006030919216
-0.0108950284
-0.01014974982
-0.01006488808
-0.01422096599
-0.008157305497
-0.01746084024
-0.005167631643
-0.01849216694
-0.001854349
-0.01533108076
-0.006709860858
-0.0003552700595
0.003409004312
-0.0009733331689
0.007679677954
-0.001646057407
0.01012797769
-0.002268710333
0.01128603509
-0.002816839937
0.01160581161
-0.003303693523
0.01137019537
-0.003759409914
0.01073088157
-0.004220924586
0.009745584411
-0.00472614675
0.008410834714
-0.005309762524
0.00668862145
-0.005996656465
0.004523097107
-0.006791798111
0.001853143391
-0.007660585439
-0.001374695419
-0.008503029248
-0.00518847542
-0.009113178072
-0.009539600993
-0.009142508015
-0.01419163605
-0.008128400628
-0.01847494762
-0.005711156558
-0.02090941101
-0.002318284783
-0.01872395254
-0.00902814564
-0.0005003770304
0.003909381321
-0.001151296484
0.008330597389
-0.001674821002
0.01065150222
-0.001981640267
0.01159285437
-0.002095672357
0.01171984371
-0.002075735528
0.01135025854
-0.00198847702
0.01064362306
-0.00190115111
0.009658258506
-0.001878926905
0.008388610509
-0.001985970882
0.006795665418
-0.002282466722
0.004819592928
-0.002818755515
0.002389432159
-0.003622151987
-0.0005712989681
-0.004668842691
-0.004141784731
-0.005834634785
-0.008373808905
-0.006807663591
-0.01321860724
-0.007016668742
-0.01826594247
-0.005716400987
-0.02220967876
-0.002739567079
-0.02170078644
-0.01176771272
-0.0008308853745
0.004740266676
-0.001604832856
0.009104544853
-0.001950979346
0.01099764871
-0.00183938274
0.01148125776
-0.00138543475
0.0112658957
-0.0007181315701
0.01068295534
4.821344784e-05
0.009877278046
0.0008164049516
0.008890067016
0.001495360923
0.007709654561
0.001998424473
0.00629260189
0.002238517855
0.004579499561
0.002128355213
0.002499594808
0.001583160347
-2.610410181e-05
0.0005450317612
-0.00310365615
-0.0009843144176
-0.006844462732
-0.002828401645
-0.01137452002
-0.004459125882
-0.01663521823
-0.004810489474
-0.02185831517
-0.002944290901
-0.02356698502
-0.01471200362
-0.00146568253
0.006205949188
-0.002379876647
0.01001873896
-0.002373444862
0.01099121691
-0.001603541846
0.01071135472
-0.0003496262482
0.01001198009
0.001163642771
0.009169686326
0.00277184229
0.008269078543
0.004349534435
0.007312374904
0.005791624066
0.006267564974
0.006998015307
0.005086210693
0.007865493702
0.003712021204
0.008282285724
0.002082802812
0.008123822627
0.0001323590039
0.007264497114
-0.002244330636
0.005585213354
-0.005165178972
0.003073873262
-0.008863179925
7.897207325e-05
-0.01364031704
-0.002445747289
-0.01933359581
-0.002601077991
-0.02341165432
-0.01731308161
-0.00236550401
0.008571453189
-0.002963808712
0.01061704368
-0.001922814025
0.009950222215
8.111542791e-05
0.008707425254
0.002534887332
0.007558208187
0.00514025602
0.006564317646
0.007719753953
0.005689580628
0.01015462195
0.004877506934
0.01234957396
0.004072612993
0.01421200276
0.003223781916
0.01564054066
0.002283483332
0.01651758939
0.001205754086
0.01669710004
-4.715164143e-05
0.01602712656
-0.001574357159
0.0143050903
-0.003443142714
0.01133283095
-0.005890920572
0.007055613848
-0.009363099938
0.002201623711
-0.01447960567
-0.001027320523
-0.02018271008
-0.01834040213
-0.002150342911
0.0107217961
-7.199467645e-05
0.008538695486
0.003741898431
0.006136329121
0.007719772861
0.004729550838
0.01156187109
0.003716109964
0.01514101068
0.002985178048
0.01839885635
0.002431734953
0.02130155575
0.001974807508
0.02381243397
0.00156173476
0.0258797351
0.001156480756
0.02743056926
0.0007326491499
0.02836472843
0.0002715948977
0.02857561767
-0.0002580408812
0.02788766542
-0.0008864049064
0.02609934141
-0.001654818705
0.02290826575
-0.002699844913
0.0179069669
-0.004361801086
0.01076690819
-0.007339546962
0.002912180383
-0.01232798228
-0.01542822175
0.01072179612
0.01926049161
0.02539682073
0.03012637157
0.03384248152
0.03682765955
0.03925939448
0.04123420196
0.04279593669
0.04395241743
0.04468506657
0.04495666147
0.04469862059
0.04381221569
0.04215739699
0.03945755208
0.03509575099
0.02775620403
0.01542822175
)
;

boundaryField
{
    movingWall
    {
        type            calculated;
        value           uniform 0;
    }
    fixedWalls
    {
        type            calculated;
        value           uniform 0;
    }
    frontAndBack
    {
        type            empty;
    }
}


// ************************************************************************* //
