/*--------------------------------*- C++ -*----------------------------------*\
  =========                 |
  \\      /  F ield         | OpenFOAM: The Open Source CFD Toolbox
   \\    /   O peration     | Website:  https://openfoam.org
    \\  /    A nd           | Version:  13
     \\/     M anipulation  |
\*---------------------------------------------------------------------------*/
FoamFile
{
    format      ascii;
    class       volVectorField;
    location    "49";
    object      U;
}
// * * * * * * * * * * * * * * * * * * * * * * * * * * * * * * * * * * * * * //

dimensions      [0 1 -1 0 0 0 0];

internalField   nonuniform List<vector> 
400
(
(0.0001833256831 -0.000188035402 0)
(-0.0001367458539 2.898285417e-05 0)
(-0.001535017957 0.0002680533605 0)
(-0.003791738788 0.0004194274314 0)
(-0.006558195598 0.0004994962126 0)
(-0.0095323644 0.0005301569857 0)
(-0.01246355935 0.0005211732942 0)
(-0.01511738023 0.0004714184211 0)
(-0.01725234521 0.0003740382169 0)
(-0.01862063428 0.000223575658 0)
(-0.01899565649 2.325469352e-05 0)
(-0.01822180261 -0.0002094537576 0)
(-0.01627410501 -0.0004404135658 0)
(-0.01330922735 -0.0006228395227 0)
(-0.009685596172 -0.0007079226325 0)
(-0.00593219811 -0.0006606492265 0)
(-0.002657520357 -0.0004749497499 0)
(-0.0004045163927 -0.0001816180547 0)
(0.0005429823332 0.0001380454579 0)
(0.0003105951481 0.0003035910835 0)
(-4.69717188e-05 0.0001353389457 0)
(-0.00208237246 0.001935337671 0)
(-0.00644492441 0.003766380856 0)
(-0.01260763537 0.005032923549 0)
(-0.01980996016 0.005699898189 0)
(-0.02737927761 0.005843875666 0)
(-0.03470887563 0.005515389635 0)
(-0.04121471506 0.004720578967 0)
(-0.0463150066 0.003449485949 0)
(-0.04944958607 0.001721646409 0)
(-0.05014422951 -0.0003696512851 0)
(-0.04810852654 -0.0026289386 0)
(-0.04334444784 -0.004757745718 0)
(-0.03623313862 -0.006391646355 0)
(-0.02756287172 -0.007176940229 0)
(-0.01846405407 -0.006876268199 0)
(-0.01023010999 -0.005475414249 0)
(-0.00403291188 -0.003258300126 0)
(-0.0005741735582 -0.0008594987544 0)
(0.0002227050226 0.0005922523321 0)
(-0.0003536319085 0.001718327798 0)
(-0.004495761242 0.006477101811 0)
(-0.01189474857 0.01069328103 0)
(-0.02164529397 0.01354458173 0)
(-0.03264626419 0.0149817452 0)
(-0.04398325269 0.01513254535 0)
(-0.05481535572 0.01408616605 0)
(-0.064323459 0.01186463351 0)
(-0.07170278917 0.008481223859 0)
(-0.07619924718 0.004031283512 0)
(-0.077192018 -0.001223144476 0)
(-0.07430946971 -0.006803339343 0)
(-0.06755483214 -0.01202049393 0)
(-0.05741094251 -0.01605519882 0)
(-0.04488615583 -0.01811625484 0)
(-0.03145765441 -0.01766315604 0)
(-0.01887146935 -0.01464223712 0)
(-0.008797429086 -0.009659922629 0)
(-0.00241854831 -0.004055688957 0)
(3.606295573e-05 2.875463707e-05 0)
(-0.0006317223691 0.004602814965 0)
(-0.006826808145 0.0137016254 0)
(-0.01713918035 0.02096417536 0)
(-0.03021616823 0.02568205412 0)
(-0.04461394842 0.02792043544 0)
(-0.05923672638 0.02789873932 0)
(-0.07309709261 0.02575626384 0)
(-0.08523444127 0.02153911074 0)
(-0.09470691791 0.0152995663 0)
(-0.100630147 0.007235071566 0)
(-0.1022606974 -0.002187039025 0)
(-0.09911376249 -0.01215685814 0)
(-0.09109935418 -0.02152900686 0)
(-0.07865587853 -0.02893548186 0)
(-0.06284671621 -0.03302146097 0)
(-0.04536369004 -0.03279856747 0)
(-0.02836297182 -0.02805260751 0)
(-0.01409725575 -0.01967119812 0)
(-0.004434944775 -0.009754215564 0)
(-0.0001244716584 -0.001512048599 0)
(-0.0008713547101 0.008671846306 0)
(-0.008911808623 0.02337998162 0)
(-0.02186847881 0.03424644769 0)
(-0.03794894214 0.04100314681 0)
(-0.05538839978 0.04400393255 0)
(-0.07295505618 0.04363625918 0)
(-0.08958180101 0.04011678665 0)
(-0.1042397303 0.03352199762 0)
(-0.1159121622 0.02393995551 0)
(-0.1236179611 0.01165930304 0)
(-0.1264794771 -0.002664621032 0)
(-0.1238307888 -0.01790552319 0)
(-0.1153644863 -0.03245292423 0)
(-0.1013103196 -0.0443280318 0)
(-0.08261860426 -0.05146996188 0)
(-0.06108123475 -0.05222052158 0)
(-0.03927055375 -0.04595644096 0)
(-0.02019113349 -0.03367501184 0)
(-0.006688784398 -0.01823658163 0)
(-0.0002709513645 -0.004088502925 0)
(-0.001068723596 0.01376395402 0)
(-0.01066853418 0.03520869268 0)
(-0.02588855403 0.05018569247 0)
(-0.04455648079 0.0591404071 0)
(-0.06463945794 0.06288963662 0)
(-0.08481792931 0.06208092641 0)
(-0.1040033587 0.05704586147 0)
(-0.1211608285 0.04789406803 0)
(-0.1352511477 0.03472571835 0)
(-0.1452228513 0.01787268625 0)
(-0.1500497429 -0.001888975714 0)
(-0.148818296 -0.02318614571 0)
(-0.1408799543 -0.04398482908 0)
(-0.1260804588 -0.06165894023 0)
(-0.1050548277 -0.07327811732 0)
(-0.07952191767 -0.07620209687 0)
(-0.05241773636 -0.06899096737 0)
(-0.02766256173 -0.05241212756 0)
(-0.009461522373 -0.03003074403 0)
(-0.000446340162 -0.007851124365 0)
(-0.0012161222 0.01968516214 0)
(-0.01202162944 0.04880163932 0)
(-0.02902013683 0.06833084161 0)
(-0.04974551795 0.07964822631 0)
(-0.07196780032 0.08418798672 0)
(-0.09433058577 0.08295109459 0)
(-0.115778345 0.0764264306 0)
(-0.1353292381 0.06475698503 0)
(-0.151976894 0.04801637771 0)
(-0.1646395177 0.02650305919 0)
(-0.1721535938 0.00100471345 0)
(-0.1733282201 -0.02698289998 0)
(-0.1670845582 -0.05510223962 0)
(-0.1527186417 -0.080098793 0)
(-0.1303085036 -0.09803147947 0)
(-0.1012197499 -0.1049078812 0)
(-0.06854492638 -0.09788525938 0)
(-0.03717270235 -0.07689848632 0)
(-0.01311441189 -0.04598801374 0)
(-0.0007021697889 -0.01312961775 0)
(-0.001304811752 0.02620241112 0)
(-0.01289894915 0.06368439222 0)
(-0.0310899901 0.08811273923 0)
(-0.05321111096 0.1019462455 0)
(-0.07690991332 0.107363119 0)
(-0.1008412142 0.1058065852 0)
(-0.1240329657 0.09796948983 0)
(-0.1456159103 0.08403147821 0)
(-0.1646828976 0.06399737285 0)
(-0.1801899668 0.03804218314 0)
(-0.1908979006 0.006829165184 0)
(-0.1953739555 -0.02819394272 0)
(-0.1920909065 -0.06451897395 0)
(-0.1796823309 -0.09838052848 0)
(-0.1574180491 -0.1247829322 0)
(-0.1259173473 -0.1380381091 0)
(-0.08799240938 -0.1331637641 0)
(-0.04929538611 -0.1082838477 0)
(-0.01804220029 -0.06727951013 0)
(-0.001101730102 -0.02045789401 0)
(-0.001330083646 0.03304790522 0)
(-0.01325379617 0.07930368137 0)
(-0.03196748827 0.1088445712 0)
(-0.05468826535 0.1252946445 0)
(-0.07900815629 0.131673228 0)
(-0.1036338501 0.1299501341 0)
(-0.1277220218 0.1210764921 0)
(-0.150575998 0.1052839405 0)
(-0.1714669493 0.08247835781 0)
(-0.1894893535 0.05262928476 0)
(-0.2034473942 0.01613578156 0)
(-0.2117887226 -0.02580124261 0)
(-0.2126273057 -0.07077141679 0)
(-0.2039262492 -0.1147520196 0)
(-0.1839556322 -0.1518348217 0)
(-0.1521404492 -0.1744572265 0)
(-0.1103323978 -0.174733371 0)
(-0.06432660148 -0.1475704866 0)
(-0.02464321636 -0.09531685249 0)
(-0.001728249706 -0.03058715449 0)
(-0.001298673099 0.03994211029 0)
(-0.01310351093 0.09506089538 0)
(-0.03163242082 0.1297428776 0)
(-0.05404790124 0.1487897011 0)
(-0.07793833317 0.1561355727 0)
(-0.1020966548 0.1543603471 0)
(-0.125849713 0.1447392699 0)
(-0.1487321787 0.1275917023 0)
(-0.1702793241 0.1027220795 0)
(-0.1898474579 0.06984398991 0)
(-0.206451293 0.02897854987 0)
(-0.2186225316 -0.01911897603 0)
(-0.2243297219 -0.07243677566 0)
(-0.2210141651 -0.1270919821 0)
(-0.205908683 -0.1766617105 0)
(-0.1768688963 -0.211862154 0)
(-0.1339602041 -0.2213587098 0)
(-0.08200753426 -0.1951388186 0)
(-0.03326371909 -0.1315612106 0)
(-0.002695692886 -0.044493077 0)
(-0.001238635334 0.04664261472 0)
(-0.01258104571 0.1103819719 0)
(-0.03026405264 0.1499817031 0)
(-0.05142060547 0.1713921466 0)
(-0.07367260596 0.179531915 0)
(-0.09593858815 0.1776791887 0)
(-0.1177615213 0.1675106692 0)
(-0.1389645669 0.1494913663 0)
(-0.159428077 0.1233576782 0)
(-0.1788928604 0.08856597948 0)
(-0.196766735 0.0447020236 0)
(-0.2119159612 -0.008078543388 0)
(-0.2224806804 -0.068482876 0)
(-0.2257050171 -0.1332457685 0)
(-0.217992047 -0.1960984139 0)
(-0.1954999564 -0.2466610893 0)
(-0.1557617549 -0.2701604676 0)
(-0.1011498118 -0.2500845042 0)
(-0.04407022851 -0.1771571678 0)
(-0.004158490399 -0.06336404869 0)
(-0.001212731967 0.05302670038 0)
(-0.01199915726 0.1248312631 0)
(-0.02834067162 0.1687837624 0)
(-0.04732264493 0.1919910223 0)
(-0.06663544909 0.2004601643 0)
(-0.08539314866 0.1982665327 0)
(-0.1034232914 0.1875680676 0)
(-0.1208969817 0.1690443424 0)
(-0.138103296 0.1424260664 0)
(-0.1552577616 0.1069617863 0)
(-0.1723083627 0.06181534025 0)
(-0.1887093935 0.00647378943 0)
(-0.2031080439 -0.0587032607 0)
(-0.2130065377 -0.1315777809 0)
(-0.2144909271 -0.2068798725 0)
(-0.2023005905 -0.2742591876 0)
(-0.1710749918 -0.3163845912 0)
(-0.1192548734 -0.3094882905 0)
(-0.05680363654 -0.2323212782 0)
(-0.006313904342 -0.0885403915 0)
(-0.001339908037 0.05922034271 0)
(-0.01193390392 0.1382705549 0)
(-0.02673963123 0.1855358195 0)
(-0.04274923457 0.2094842766 0)
(-0.05778984539 0.2174134941 0)
(-0.0713151469 0.2143055006 0)
(-0.08355503328 0.2028580182 0)
(-0.09509903789 0.1840171844 0)
(-0.1066845184 0.1575739886 0)
(-0.1190382108 0.1226514115 0)
(-0.13271518 0.07807552558 0)
(-0.1478876234 0.02271401129 0)
(-0.1640165989 -0.04406553682 0)
(-0.1793821252 -0.1216136939 0)
(-0.190463781 -0.206488545 0)
(-0.19135808 -0.2898552419 0)
(-0.1741262337 -0.3537188093 0)
(-0.1323275949 -0.3678993472 0)
(-0.07039703977 -0.2954564996 0)
(-0.009383253924 -0.1213330433 0)
(-0.001835853643 0.0657965828 0)
(-0.01334310164 0.1510552503 0)
(-0.02682134562 0.1998899547 0)
(-0.03917556279 0.2228270723 0)
(-0.0485538307 0.2288359867 0)
(-0.05503150803 0.2239041136 0)
(-0.05943497755 0.2112609135 0)
(-0.06286032184 0.1921105414 0)
(-0.06650614753 0.1663344746 0)
(-0.0715816067 0.1330096978 0)
(-0.07921291891 0.09075356145 0)
(-0.09029958455 0.03797543182 0)
(-0.1052523031 -0.02683134916 0)
(-0.1235226311 -0.1045350979 0)
(-0.1427827274 -0.1940712536 0)
(-0.1576784953 -0.2896281871 0)
(-0.1588442974 -0.3752817336 0)
(-0.1350319237 -0.4173998795 0)
(-0.08249868156 -0.3621174061 0)
(-0.01351935549 -0.1625611812 0)
(-0.003073117516 0.07406834245 0)
(-0.01771448097 0.1642347518 0)
(-0.03041213106 0.2117657463 0)
(-0.0382886198 0.2309537742 0)
(-0.04029976319 0.2330646344 0)
(-0.0376507104 0.225099379 0)
(-0.03204607357 0.2106688838 0)
(-0.02518673438 0.1911141532 0)
(-0.01871837018 0.1663618482 0)
(-0.01425087684 0.1354805919 0)
(-0.01336353958 0.09700486169 0)
(-0.01756419656 0.04910943596 0)
(-0.02815446545 -0.01026793959 0)
(-0.04589937265 -0.08319551514 0)
(-0.0702640347 -0.1709861479 0)
(-0.09777516918 -0.2718851716 0)
(-0.1195685128 -0.3750669187 0)
(-0.1210221141 -0.4485011892 0)
(-0.08896773693 -0.4243505709 0)
(-0.01849606256 -0.2117473821 0)
(-0.005569505706 0.08658552465 0)
(-0.02705382993 0.179645798 0)
(-0.03924983645 0.2209895834 0)
(-0.04076085528 0.2323168262 0)
(-0.03259193544 0.2279473956 0)
(-0.01792928334 0.2155896294 0)
(0.0003160539446 0.1988251089 0)
(0.01977958246 0.1788489129 0)
(0.03843370803 0.1554897379 0)
(0.05439788547 0.1277854272 0)
(0.06580910821 0.0942796119 0)
(0.07074850904 0.05313668425 0)
(0.0672338074 0.002140206933 0)
(0.05334375988 -0.06137828115 0)
(0.02768049029 -0.1404671334 0)
(-0.009141809804 -0.2374918848 0)
(-0.0510694259 -0.3491680073 0)
(-0.08302543151 -0.4515956315 0)
(-0.08338416935 -0.4711650139 0)
(-0.02311103369 -0.2667583247 0)
(-0.009891444284 0.1087077679 0)
(-0.04292217153 0.1996214749 0)
(-0.05207119304 0.2258355117 0)
(-0.0415209281 0.2234192202 0)
(-0.01748614415 0.2097262028 0)
(0.01375653194 0.1919729736 0)
(0.04802528929 0.1728530426 0)
(0.08248528134 0.1529328703 0)
(0.1149702891 0.1317065203 0)
(0.1435780856 0.1081134361 0)
(0.1664073569 0.08076809314 0)
(0.1813837123 0.04801137404 0)
(0.1861391298 0.007839252276 0)
(0.1779728909 -0.04234924858 0)
(0.1539400247 -0.1062383237 0)
(0.1116665783 -0.1891294517 0)
(0.05245870278 -0.2960052559 0)
(-0.01241701138 -0.4177504258 0)
(-0.05670068291 -0.4889684688 0)
(-0.02464895603 -0.3240583249 0)
(-0.01781313319 0.1516598132 0)
(-0.06127575606 0.2236355868 0)
(-0.05219595451 0.2177031998 0)
(-0.01421360031 0.1950202128 0)
(0.03564318723 0.1711705411 0)
(0.08891848769 0.149197523 0)
(0.1416198943 0.1294963031 0)
(0.1914560413 0.1114759287 0)
(0.2368270237 0.09410020911 0)
(0.2763310649 0.07619079302 0)
(0.308437157 0.05651738504 0)
(0.3312778127 0.03376004564 0)
(0.3424764594 0.006404921824 0)
(0.3390413327 -0.02752932952 0)
(0.3171689156 -0.07120276368 0)
(0.2722799283 -0.1305554444 0)
(0.2001801432 -0.2164996398 0)
(0.1030311663 -0.3383572245 0)
(0.004385662854 -0.4567900841 0)
(-0.0159565094 -0.3693324853 0)
(-0.02422703964 0.2082579781 0)
(-0.03792012554 0.2303494286 0)
(0.03727761447 0.1765394205 0)
(0.1250877342 0.1368816126 0)
(0.2059024042 0.1091041981 0)
(0.2781311685 0.08826831878 0)
(0.3424325565 0.07217263355 0)
(0.3990871713 0.05922856489 0)
(0.4481370421 0.04805637285 0)
(0.4893496287 0.03752509087 0)
(0.522047325 0.02669768634 0)
(0.5449985578 0.01472854087 0)
(0.5563239382 0.000746227605 0)
(0.5533753239 -0.01632009091 0)
(0.532342321 -0.03830966755 0)
(0.4877644899 -0.0691640717 0)
(0.4111546746 -0.119104053 0)
(0.2908974578 -0.209350432 0)
(0.1331395506 -0.3382876175 0)
(0.03877868582 -0.340367017 0)
(0.2418838026 0.1091301657 0)
(0.3134470923 0.09711316819 0)
(0.4443088248 0.05696560975 0)
(0.5496237825 0.03510810306 0)
(0.6240717396 0.02373968341 0)
(0.6796383655 0.01671029543 0)
(0.7235387592 0.01197999465 0)
(0.7588655493 0.008693008538 0)
(0.787165613 0.006252741524 0)
(0.8092350499 0.004228542321 0)
(0.8252521426 0.002326356732 0)
(0.8348483546 0.0003382452956 0)
(0.8371632704 -0.001911988342 0)
(0.8307800051 -0.004592844934 0)
(0.8133995374 -0.008029691615 0)
(0.7811321333 -0.01288415511 0)
(0.725687066 -0.02122718863 0)
(0.6298601856 -0.0380903635 0)
(0.4592680389 -0.08554756849 0)
(0.3048944555 -0.1256974007 0)
)
;

boundaryField
{
    movingWall
    {
        type            fixedValue;
        value           uniform (1 0 0);
    }
    fixedWalls
    {
        type            fixedValue;
        value           uniform (0 0 0);
    }
    frontAndBack
    {
        type            empty;
    }
}


// ************************************************************************* //
