/*--------------------------------*- C++ -*----------------------------------*\
  =========                 |
  \\      /  F ield         | OpenFOAM: The Open Source CFD Toolbox
   \\    /   O peration     | Website:  https://openfoam.org
    \\  /    A nd           | Version:  13
     \\/     M anipulation  |
\*---------------------------------------------------------------------------*/
FoamFile
{
    format      ascii;
    class       vectorField;
    location    "49";
    object      U_all;
}
// * * * * * * * * * * * * * * * * * * * * * * * * * * * * * * * * * * * * * //


400
(
(1.100863489e-05 -3.782995967e-05 0)
(-0.0006660922452 0.0004130431278 -1.551447353e-23)
(-0.002185373283 0.0009203936896 0)
(-0.004047831978 0.001312780958 0)
(-0.005971868185 0.001535065948 6.845898933e-25)
(-0.007762783745 0.001569848185 4.150663982e-24)
(-0.009284545872 0.001423563952 -7.374052583e-24)
(-0.01043594181 0.001119723508 7.529968526e-24)
(-0.01113681448 0.0006960826847 -2.095295458e-25)
(-0.01132711155 0.0002030777005 -3.994550832e-24)
(-0.01097177291 -0.0003002333853 5.803488556e-24)
(-0.01007232844 -0.000747516174 -5.929462829e-23)
(-0.008679880649 -0.001075562529 -6.552601935e-23)
(-0.00690285331 -0.001233044307 -7.784241524e-23)
(-0.004910737916 -0.001192638599 4.573541546e-24)
(-0.002927231256 -0.0009619206794 -4.13787898e-24)
(-0.001205298283 -0.0005912120229 -1.99871647e-22)
(-1.906784808e-05 -0.0001698832371 0)
(0.0005181542213 0.0001720855024 1.509504686e-25)
(0.0002227515599 0.0003059786697 -2.551875645e-24)
(-0.0002633614632 0.0008289726056 1.382857631e-25)
(-0.002703303497 0.003383843496 1.561246792e-23)
(-0.006907275606 0.005604502352 1.5555521e-25)
(-0.01195231895 0.007008208048 -8.496223108e-25)
(-0.01713504419 0.007553776424 1.162264273e-24)
(-0.0219753549 0.007294200413 1.307009194e-23)
(-0.026110762 0.006321895253 1.387093547e-24)
(-0.0292656488 0.004754194133 -7.281736707e-24)
(-0.03122673152 0.002737152422 1.015234902e-23)
(-0.03184201087 0.0004524060748 4.509881234e-24)
(-0.03102761509 -0.001884144589 -6.318748963e-24)
(-0.02879316684 -0.00402302934 2.961590552e-24)
(-0.02527138433 -0.005708354221 3.895487423e-23)
(-0.02073194971 -0.006707409315 -1.954738071e-24)
(-0.01558962716 -0.006854140354 3.754421298e-24)
(-0.01038513433 -0.006097465191 -9.740760199e-23)
(-0.00573027191 -0.004546187989 9.637470461e-23)
(-0.002233366365 -0.002507420586 -3.960936864e-25)
(-0.0001817749634 -0.0005023733775 4.060832636e-25)
(8.343543598e-05 0.0006099251472 0)
(-0.0004188228821 0.002935080872 -2.910272281e-25)
(-0.004647873748 0.00880401686 1.701863191e-23)
(-0.01137196004 0.01324042596 -8.28531051e-24)
(-0.01932729134 0.01579204288 -2.075613696e-25)
(-0.02747411778 0.01653000168 2.039074145e-25)
(-0.03511778911 0.01564441758 6.782698343e-27)
(-0.04171344908 0.01335997654 -1.219635519e-24)
(-0.04683571832 0.009919771492 -4.55069109e-25)
(-0.05014989066 0.005602433639 -1.063053659e-23)
(-0.0514123206 0.0007444207869 0)
(-0.05047793409 -0.004241780629 0)
(-0.04733706415 -0.008887187488 2.670969321e-23)
(-0.04215928028 -0.01268177 2.812974422e-23)
(-0.03531437529 -0.01513605231 -1.646132434e-24)
(-0.02738996344 -0.01586189615 4.84576228e-23)
(-0.01917005937 -0.01467334235 9.419068836e-23)
(-0.01156090737 -0.01169360464 3.975438224e-23)
(-0.005465411621 -0.007450743975 4.141188852e-25)
(-0.001451099113 -0.002936044333 1.074080152e-25)
(-9.072698597e-05 0.000225876402 0)
(-0.0005024628654 0.006045351198 -4.248755887e-23)
(-0.006402739478 0.01637075737 -1.692086678e-23)
(-0.01553502447 0.02355933803 8.212147459e-24)
(-0.02627912134 0.02744162861 0)
(-0.03728746899 0.02832102412 0)
(-0.04769037653 0.02658772727 0)
(-0.05679663206 0.02263120461 -4.464778292e-26)
(-0.06405384212 0.01683609346 -2.13710078e-24)
(-0.06901081693 0.009622183817 0)
(-0.0713082809 0.001491049761 1.635319525e-24)
(-0.07070853757 -0.006936504455 2.802708628e-25)
(-0.06713039653 -0.01493018934 -2.810556153e-25)
(-0.06069905835 -0.02166728279 0)
(-0.05180750732 -0.02631605889 4.133211446e-23)
(-0.04114991823 -0.02816070995 -4.681478096e-23)
(-0.02971970305 -0.02677372326 -2.761829801e-23)
(-0.01873716698 -0.02221530582 -3.960580498e-23)
(-0.009488028241 -0.01521922233 7.795831054e-25)
(-0.002976879708 -0.007298195047 9.790525443e-23)
(-0.0002318794704 -0.0008661684307 0)
(-0.0005316131653 0.01009501717 4.269415838e-23)
(-0.007983592903 0.0259521977 4.785551626e-25)
(-0.01939687512 0.03642883102 -4.676251145e-25)
(-0.03282382551 0.04185521009 0)
(-0.04664689178 0.04289485533 7.783107024e-25)
(-0.05985229911 0.04020074316 -7.675191396e-25)
(-0.07163291662 0.03434741891 3.672329058e-23)
(-0.08132751538 0.0258566422 1.84825544e-23)
(-0.0883660135 0.01527298386 6.238988195e-24)
(-0.09225469791 0.003246146646 -1.637224689e-24)
(-0.09260380025 -0.009407833298 0)
(-0.08917555746 -0.0216747814 4.37051766e-25)
(-0.08195979488 -0.03236745201 1.008981847e-23)
(-0.07126885663 -0.04021250299 -4.349239845e-23)
(-0.05782019 -0.04402046493 1.932856718e-24)
(-0.04278583083 -0.04294829491 4.217087013e-23)
(-0.02775450379 -0.03683347019 -3.841449014e-25)
(-0.01455062316 -0.02652721027 0)
(-0.004859462194 -0.01408454515 5.436541393e-23)
(-0.0003641481415 -0.00284695355 -2.56509325e-22)
(-0.0005272212122 0.01499927826 9.841667704e-23)
(-0.009377925766 0.03739022549 -4.907845963e-25)
(-0.02288182846 0.05170223336 0)
(-0.03883043645 0.05894183473 0)
(-0.05538656959 0.06025574952 -8.732178566e-23)
(-0.07142876929 0.05661901348 -8.499147477e-23)
(-0.08606654468 0.04880169 -4.067588498e-23)
(-0.09855086352 0.03743980669 -1.504387662e-23)
(-0.1081945348 0.02315984034 -5.369014007e-24)
(-0.1143444764 0.006709679158 -8.175054284e-24)
(-0.116404624 -0.01093292231 6.60119096e-24)
(-0.113893743 -0.02848945168 8.826815883e-24)
(-0.1065487007 -0.04437046412 -1.892319714e-23)
(-0.09446804306 -0.05675333935 4.607936241e-24)
(-0.07826857118 -0.0637829883 0)
(-0.05922895589 -0.06393495558 -1.572803153e-23)
(-0.03933981981 -0.05653816375 -2.431002892e-26)
(-0.02114188835 -0.04235809173 0)
(-0.007318702736 -0.02398229433 -1.520663325e-22)
(-0.0005216164342 -0.005925544955 6.056301424e-22)
(-0.0004990821933 0.02064574635 -9.774618584e-23)
(-0.01052951023 0.05045438413 2.831997802e-22)
(-0.02582957547 0.06912512059 1.526866724e-22)
(-0.04402138463 0.07849258309 3.619297848e-24)
(-0.06310739383 0.08029476795 -7.31934596e-23)
(-0.08190405335 0.07588043237 9.043607292e-23)
(-0.0994776396 0.06621690934 -3.590235429e-24)
(-0.1150227407 0.05201695212 -1.729180699e-24)
(-0.1277519211 0.03392358553 2.52417627e-24)
(-0.1368472631 0.0127023318 7.382684401e-24)
(-0.141471055 -0.01058782403 -6.500934524e-24)
(-0.1408248208 -0.03446024509 -9.788249858e-24)
(-0.1342745994 -0.05692771899 -3.261734926e-23)
(-0.1215450265 -0.07553316437 -3.661541659e-23)
(-0.1029672681 -0.08754260779 5.646051482e-25)
(-0.07976370089 -0.09039209844 0)
(-0.054266826 -0.08244513868 0)
(-0.02987160996 -0.06397736931 -2.90608764e-24)
(-0.01066285165 -0.03798794754 2.970537381e-24)
(-0.000735093724 -0.01050089486 1.027872693e-22)
(-0.0004479163846 0.02687251213 0)
(-0.01134923244 0.06480757769 2.001983122e-22)
(-0.0280159976 0.08829617593 8.962063911e-23)
(-0.04799857485 0.1001234986 0)
(-0.06920602197 0.1027076593 1.569890097e-22)
(-0.09044373456 0.09781578986 0)
(-0.1107831712 0.08661103331 -1.428392643e-22)
(-0.1294093799 0.06983950564 6.515585308e-24)
(-0.1454771673 0.04808232304 0)
(-0.1580351851 0.02201755584 0)
(-0.1660133491 -0.007334440518 -1.374417724e-24)
(-0.1682671591 -0.03838839888 -9.316828919e-25)
(-0.1637064729 -0.06883976077 1.491987471e-22)
(-0.1515208793 -0.09558276017 -4.704637816e-23)
(-0.1315134583 -0.1148298686 -2.56099048e-24)
(-0.1045596099 -0.1225703436 1.534748188e-24)
(-0.07309350052 -0.1155517986 -1.558957735e-24)
(-0.04135021577 -0.09283115717 0)
(-0.01525230312 -0.0574076772 3.203826092e-24)
(-0.001044309174 -0.01714714489 -1.012917796e-21)
(-0.0003744663684 0.0334630461 0)
(-0.01175006063 0.07998918982 -1.128300723e-22)
(-0.0292070797 0.1086390979 -6.191168161e-22)
(-0.05031745123 0.1232234031 -3.755315953e-22)
(-0.07296317608 0.1269097075 0)
(-0.09598960428 0.1219255677 4.119464721e-22)
(-0.1185273513 0.1096348674 1.260928783e-22)
(-0.1398146456 0.09078246091 -5.581848991e-24)
(-0.159022159 0.06581393283 5.554221838e-24)
(-0.1751461045 0.03520881117 0)
(-0.1869560025 -0.0001967478885 2.912137261e-23)
(-0.1930172686 -0.03889754496 4.695854967e-24)
(-0.1917809949 -0.0784388876 -1.076813309e-22)
(-0.1817874469 -0.1151865407 8.004249047e-23)
(-0.1620570466 -0.1442599497 -2.419754967e-22)
(-0.1327062026 -0.1598548662 0)
(-0.09577888344 -0.1563112916 0)
(-0.05601633162 -0.1302981106 0)
(-0.02147859177 -0.08381135238 0)
(-0.001500384676 -0.02665516329 5.572134703e-22)
(-0.0002873899227 0.04016077855 0)
(-0.01169359623 0.09543611791 -3.493024957e-22)
(-0.02924438299 0.1294073664 8.932818521e-22)
(-0.05060947321 0.1469299209 3.617187977e-22)
(-0.07370082721 0.1519748714 0)
(-0.0974515125 0.1472757999 -3.862562061e-22)
(-0.1211069854 0.134419198 -3.174435086e-23)
(-0.1440324808 0.1141393341 3.333109174e-22)
(-0.1655143262 0.08670006747 1.769476992e-22)
(-0.1846248549 0.05229123532 -4.060157289e-23)
(-0.2001325837 0.01141716135 1.656821395e-23)
(-0.2104622467 -0.03471424292 -8.265265875e-24)
(-0.213720855 -0.08376563831 3.371864191e-22)
(-0.2078215519 -0.1318756377 0)
(-0.1908238554 -0.1732756171 2.420923997e-22)
(-0.1616335754 -0.200259343 5.774803641e-24)
(-0.1211662703 -0.2040121742 -5.860923045e-24)
(-0.0738498988 -0.1772119983 1.548456917e-22)
(-0.0297178686 -0.1188642343 -5.435487523e-24)
(-0.002179545171 -0.04005398792 0)
(-0.0002117199211 0.04671640128 0)
(-0.01125001081 0.1105498155 0)
(-0.02815624437 0.149735504 -5.022766023e-22)
(-0.04874479282 0.1701517644 -1.881000823e-23)
(-0.07100086623 0.1766257187 2.038381396e-23)
(-0.09399451498 0.1724526548 -2.014313861e-23)
(-0.1171434303 0.1594871018 -2.316886113e-23)
(-0.1400179509 0.1384805104 -3.029827351e-22)
(-0.1621328896 0.1095160728 6.698613827e-23)
(-0.1827959042 0.07245187008 4.51318386e-23)
(-0.200983556 0.02734928808 -4.577727198e-23)
(-0.2152270266 -0.02508697871 0)
(-0.2235562215 -0.08298351539 -7.839712148e-23)
(-0.22346322 -0.1427257356 0)
(-0.2120679438 -0.1981820911 -3.739568163e-22)
(-0.1867434556 -0.240077373 5.244965074e-22)
(-0.1464438312 -0.2560773448 0)
(-0.09394567788 -0.2331209536 -1.494002736e-22)
(-0.0402200102 -0.1639613681 1.937559743e-22)
(-0.003201100275 -0.05861063217 -3.411539103e-22)
(-0.0002015409132 0.05297585211 0)
(-0.01067261864 0.1248172416 9.18288068e-22)
(-0.02628446641 0.1687424617 -2.440688646e-23)
(-0.04501107752 0.191645518 9.193350482e-22)
(-0.06494597427 0.1992921093 -2.512089729e-23)
(-0.08536628461 0.1956104353 2.838847389e-23)
(-0.1059305642 0.1827886872 -2.81293342e-23)
(-0.1264924182 0.1616583528 -1.660919498e-23)
(-0.1468996841 0.132176231 -5.26023373e-22)
(-0.166845815 0.09389646656 -8.906636054e-24)
(-0.1857303016 0.04640576253 9.660204138e-24)
(-0.2024781677 -0.01023784855 3.313080189e-22)
(-0.2154154604 -0.07499820504 -5.820745635e-22)
(-0.2220209709 -0.1450311861 0)
(-0.21880321 -0.2146760646 8.887335117e-22)
(-0.2016257524 -0.2740016455 -4.940897047e-22)
(-0.1668639195 -0.3075811992 -1.572226496e-23)
(-0.1140220097 -0.2953811945 0)
(-0.05288482038 -0.2195802602 -1.890193289e-22)
(-0.004749188164 -0.08377278043 3.36059672e-22)
(-0.0003641985261 0.05902317863 1.551012025e-23)
(-0.0104957393 0.1379881526 -8.764207785e-22)
(-0.02441389491 0.1856804134 -1.157060375e-21)
(-0.04026724339 0.2101384787 -8.628998697e-22)
(-0.05630729476 0.2182348947 0)
(-0.07214856386 0.2146190302 3.513809029e-23)
(-0.0877922144 0.2018791982 -7.294873838e-23)
(-0.1034562773 0.1810005629 5.867889924e-23)
(-0.1193983855 0.1518997252 3.021369335e-22)
(-0.1357931529 0.1139150572 -1.128196593e-23)
(-0.1526082303 0.06621424914 0)
(-0.1694521359 0.008177202533 -3.603932514e-22)
(-0.1852760583 -0.06015987831 7.515673663e-22)
(-0.1980448506 -0.1372747029 8.831710208e-22)
(-0.2043546255 -0.2189261908 -5.296633192e-22)
(-0.1990977608 -0.2959712937 5.162695334e-22)
(-0.1760605328 -0.3514072616 1.078236122e-23)
(-0.1300890632 -0.3584150812 -1.095551213e-23)
(-0.06688803318 -0.2843276534 -8.215234856e-23)
(-0.00708331995 -0.1169964427 0)
(-0.0009095776391 0.06540041631 -1.911488509e-23)
(-0.01167591706 0.150281643 -1.326966648e-21)
(-0.02388882009 0.2000659585 1.094238689e-21)
(-0.03601340294 0.2244216996 6.73493642e-22)
(-0.0465730855 0.2316588274 6.014637328e-22)
(-0.05577038255 0.2272393725 6.643962859e-22)
(-0.06411245465 0.21417749 -4.4586813e-23)
(-0.0722756134 0.1936494397 -3.46133974e-22)
(-0.08096972635 0.1656028325 2.152163878e-22)
(-0.09087192002 0.1292707355 0)
(-0.1025547422 0.08353082412 0)
(-0.1163622127 0.02720010622 2.655398209e-22)
(-0.1321589533 -0.04062006139 8.194325417e-23)
(-0.1489252295 -0.1200128321 -2.821626052e-22)
(-0.1641284262 -0.2089300703 -5.411275078e-23)
(-0.1727877606 -0.300699252 1.301952019e-22)
(-0.1670311296 -0.3793329118 -3.400509994e-22)
(-0.1365292435 -0.4136451987 -1.593801715e-23)
(-0.08018250137 -0.353832622 8.204007647e-23)
(-0.01050762295 -0.1594130577 -6.032152751e-22)
(-0.002260498491 0.07348883575 0)
(-0.01580355652 0.1626521786 2.14587619e-21)
(-0.0266504253 0.2117904757 0)
(-0.03422339492 0.2333947295 -1.351809059e-21)
(-0.03759398316 0.237776685 6.184051069e-23)
(-0.03799685016 0.2312553544 -6.193100128e-22)
(-0.03668265631 0.2171899027 -4.756287773e-22)
(-0.03489036048 0.1968934502 8.301260767e-22)
(-0.03378837611 0.1703342387 -1.885699293e-22)
(-0.0344987614 0.1367221074 0)
(-0.03811572426 0.09479673572 0)
(-0.04564992165 0.0430428651 2.410616553e-23)
(-0.05790804069 -0.02013781312 -6.007201374e-22)
(-0.07514598352 -0.09620650292 -4.309569254e-22)
(-0.09645174835 -0.185555618 4.637864978e-22)
(-0.1183462605 -0.2853567778 -6.488740598e-22)
(-0.1332715374 -0.3838386542 9.119951011e-23)
(-0.1265350983 -0.4504358723 2.937284297e-23)
(-0.08899154071 -0.4198536386 5.660441179e-22)
(-0.01526917931 -0.2111719737 6.020785507e-22)
(-0.005180899615 0.08598045983 0)
(-0.02525550712 0.1766291199 1.465579527e-22)
(-0.03483407951 0.2205961566 -4.9171476e-23)
(-0.03640013777 0.2354859363 7.642935908e-22)
(-0.03018482887 0.2343406768 -7.005382946e-22)
(-0.01916579211 0.2241603896 4.746483908e-23)
(-0.005615147545 0.2083525855 -1.018610394e-22)
(0.008569610829 0.1881241094 -3.389890775e-22)
(0.02179886493 0.1633911272 2.062823949e-22)
(0.0326278178 0.133324273 0)
(0.03958458848 0.0966408614 0)
(0.04117013525 0.05174056386 -2.9026689e-22)
(0.03578484065 -0.003255398452 0)
(0.02198184898 -0.07058360902 -5.512189388e-22)
(-0.001264844163 -0.1525735512 -1.492377082e-23)
(-0.03310469722 -0.2505949851 2.559743222e-23)
(-0.06909235691 -0.359934152 2.203146382e-22)
(-0.09227826921 -0.4575424531 4.788066732e-24)
(-0.08718089891 -0.469812942 -5.789409436e-22)
(-0.02103127146 -0.26989723 0)
(-0.01111631559 0.1085974974 0)
(-0.04248901871 0.1947151678 -8.848483464e-22)
(-0.04795528907 0.2258195516 -5.411042235e-22)
(-0.03919535874 0.2282135564 4.543819136e-22)
(-0.01877830172 0.2182328144 -1.709982002e-24)
(0.007664315565 0.2028220364 -4.561052462e-23)
(0.03667993599 0.1847619777 5.696685597e-22)
(0.06582998815 0.1647118221 -2.766892073e-23)
(0.09327131139 0.1423128182 -2.06978283e-22)
(0.1173891631 0.1166274939 3.142215136e-23)
(0.1365461709 0.08641143876 -3.425918757e-23)
(0.1489669287 0.05017669001 -3.690595659e-23)
(0.1525275798 0.006159166548 3.205634888e-22)
(0.1449367046 -0.04796127065 6.119608826e-22)
(0.1235159803 -0.1153052912 -5.101174112e-22)
(0.08633533525 -0.2004195651 -1.616060234e-22)
(0.03199089368 -0.3067806592 1.531306078e-22)
(-0.02362123101 -0.4239837147 7.293650869e-23)
(-0.06492413032 -0.4871612791 1.913291383e-21)
(-0.02509971701 -0.3291544746 2.954991202e-21)
(-0.02004680481 0.1460727401 -4.390209226e-23)
(-0.06416406258 0.2112955856 4.417381988e-23)
(-0.05070230559 0.2177300483 1.000189032e-21)
(-0.01934097303 0.2014679991 -8.270552709e-24)
(0.0241446502 0.1809076188 0)
(0.07154122181 0.1606933358 4.363725157e-23)
(0.119070342 0.1416495503 -2.273853439e-22)
(0.1644767348 0.123318183 -9.027962926e-23)
(0.2062251175 0.10481173 3.680736744e-23)
(0.2429643039 0.08507140117 -1.701655834e-23)
(0.2732207595 0.06296147684 3.429972067e-23)
(0.2952536123 0.03726293809 -6.592684284e-23)
(0.3066971074 0.006535067917 -9.303909155e-23)
(0.3049738325 -0.03087770076 1.517045013e-22)
(0.2863936259 -0.07786290996 0)
(0.2470568092 -0.1399300371 1.505613491e-22)
(0.1810922242 -0.2266299753 2.560013718e-22)
(0.09604450288 -0.3443894948 0)
(-0.006697615685 -0.4552210219 -3.675634446e-21)
(-0.01922408199 -0.3777537589 -2.892620683e-21)
(-0.02591951338 0.2276828797 -9.514205608e-22)
(-0.03998324641 0.2238216525 -1.388976955e-22)
(0.03656136895 0.1810585361 -2.335583006e-22)
(0.1090503048 0.1451059095 -1.193742682e-22)
(0.1817191199 0.1172445501 -4.295829219e-23)
(0.2490090741 0.09627907708 9.783190472e-23)
(0.3100336714 0.08002510497 -1.408593399e-22)
(0.3646209346 0.06656815409 1.297176243e-22)
(0.4126252509 0.05449178945 -8.62012598e-23)
(0.4536250316 0.04270894955 1.132191154e-25)
(0.486787874 0.03032298424 1.527742546e-23)
(0.510745138 0.01652901842 7.997209071e-23)
(0.523659747 0.0005365140957 -1.81112482e-22)
(0.5231798025 -0.0186337328 -1.617147157e-22)
(0.5052323429 -0.04286478981 -4.262959815e-23)
(0.4658715088 -0.07633231201 0)
(0.3952696502 -0.1286089385 -1.846476409e-22)
(0.2916071051 -0.2208468098 8.14876241e-22)
(0.1197455107 -0.3525016903 1.631601422e-21)
(0.02670547262 -0.3775497979 2.172655833e-21)
(0.2142894469 0.1347447206 9.864990706e-22)
(0.2776311184 0.09870503545 0)
(0.4316592288 0.05810414828 -2.594322161e-22)
(0.5304749345 0.03846264958 -1.741667861e-22)
(0.6016965752 0.02623419127 0)
(0.6571198963 0.01831923492 -6.009098025e-23)
(0.701521361 0.01313600866 6.378007402e-23)
(0.7376042509 0.00954212651 -1.800157911e-23)
(0.7669368427 0.006804463709 2.88597629e-23)
(0.7902106695 0.004464743912 2.315034611e-23)
(0.807455502 0.002221319778 0)
(0.8182621363 -0.0001500751154 -2.873034475e-23)
(0.8216499721 -0.002723848444 0)
(0.81623942 -0.005712668775 2.738153761e-23)
(0.799133315 -0.009611382902 1.421694534e-23)
(0.7679986346 -0.01500255108 -5.799401171e-23)
(0.7106555756 -0.02502519953 -2.535660343e-22)
(0.6235183981 -0.04204285406 -6.918100963e-22)
(0.423009102 -0.09182968079 0)
(0.2705674689 -0.1524021841 -2.119483699e-21)
)


// ************************************************************************* //
