/*--------------------------------*- C++ -*----------------------------------*\
  =========                 |
  \\      /  F ield         | OpenFOAM: The Open Source CFD Toolbox
   \\    /   O peration     | Website:  https://openfoam.org
    \\  /    A nd           | Version:  13
     \\/     M anipulation  |
\*---------------------------------------------------------------------------*/
FoamFile
{
    format      ascii;
    class       scalarField;
    location    "19";
    object      p_all;
}
// * * * * * * * * * * * * * * * * * * * * * * * * * * * * * * * * * * * * * //


400
(
1.042739723e-09
-0.000473051059
-0.001034816386
-0.00144635051
-0.001596610034
-0.001442123509
-0.0009653210344
-0.0001630243621
0.0009494583837
0.002326640031
0.003880715861
0.005476309977
0.006939245294
0.008082639563
0.008749221813
0.008860333075
0.008455812302
0.007710439897
0.006916256662
0.006401241452
0.0004776396779
-1.168467881e-05
-0.0005006174801
-0.00082283935
-0.0009212542698
-0.0007720114277
-0.000360730188
0.0003194607276
0.001261283917
0.002431841516
0.00376086613
0.005135148592
0.006404642915
0.007405704583
0.007999063816
0.00811413106
0.007783223271
0.007149428644
0.006442585232
0.005916759375
0.001061187075
0.0004422663891
-7.523542417e-05
-0.0003705717457
-0.0004560537742
-0.000337845446
-7.617123873e-06
0.0005475602828
0.001333704655
0.002335747992
0.003502982411
0.004739842044
0.00590868006
0.006849899995
0.007419512274
0.00753504243
0.007211010492
0.006562625282
0.005774541268
0.005086872493
0.001464774787
0.0006641069469
4.547961513e-05
-0.0002876872404
-0.0004093091338
-0.0003551863394
-0.0001221305884
0.0003119089842
0.0009708475827
0.001861746676
0.00295489555
0.004168396452
0.005365172156
0.006369885767
0.007008157008
0.007159913825
0.006805102605
0.006033812039
0.00501895778
0.00405156994
0.001468916408
0.0004812150526
-0.0002634492437
-0.0006714433527
-0.0008687812537
-0.0009150037633
-0.0008074589308
-0.0005102281022
2.39126724e-05
0.0008300314433
0.001904657758
0.003182057372
0.004522404655
0.005722498274
0.006555527724
0.00683511706
0.006480312021
0.005546100583
0.00421444122
0.002877082173
0.0008944658007
-0.0002650625151
-0.001139891977
-0.001646423248
-0.001956129175
-0.002146226695
-0.002209488704
-0.002090887172
-0.001713260193
-0.001004537439
6.934294479e-05
0.001470174059
0.003062575876
0.004611742727
0.005818417338
0.006393520471
0.006151574696
0.005080152201
0.003371504784
0.001568836861
-0.0004127259174
-0.001719682287
-0.002721992383
-0.003348270713
-0.003811313925
-0.004201729502
-0.004504112194
-0.004639984963
-0.0044950351
-0.003947945614
-0.002908811865
-0.001365485312
0.0005721459905
0.002647014106
0.004473098987
0.005614027947
0.005711490728
0.004617347284
0.002503779645
0.0001243724052
-0.002579650206
-0.004004051274
-0.005128726274
-0.005896896001
-0.006560797633
-0.007222949424
-0.00785909718
-0.008365414634
-0.008584219173
-0.008330872236
-0.007434945555
-0.005798927069
-0.003467402584
-0.0006886940941
0.002066786153
0.004170418552
0.004995113015
0.004135096895
0.00165550831
-0.001418478764
-0.005698185148
-0.007205410236
-0.008443852535
-0.009373325601
-0.01028650636
-0.01130024862
-0.01238495939
-0.01341361987
-0.01418229628
-0.0144303901
-0.01387962698
-0.01230227415
-0.009617912225
-0.006004351247
-0.001979848979
0.001609978476
0.003755981965
0.003605255809
0.0009339797883
-0.002925120825
-0.009816868735
-0.01136755214
-0.0127014467
-0.01379633932
-0.01499128578
-0.01642531967
-0.01807207936
-0.01978862188
-0.02132742543
-0.02234504241
-0.02243218911
-0.02118375159
-0.01832228675
-0.01385977381
-0.008274117596
-0.002599012775
0.001677976491
0.003006102992
0.0005553716885
-0.004082257675
-0.01493876236
-0.01648713176
-0.01787538985
-0.01910068728
-0.02056385463
-0.02244152905
-0.02472421882
-0.02726483738
-0.02978084842
-0.03184772058
-0.03291345818
-0.03236029675
-0.02964395828
-0.0244956365
-0.01720936334
-0.008889785785
-0.001521662884
0.002382486374
0.0009212327265
-0.004269141319
-0.02103448987
-0.0225222709
-0.02387791079
-0.02512260564
-0.0267524014
-0.0290073701
-0.03191202702
-0.03532804805
-0.03894905871
-0.04227860589
-0.04462582278
-0.04515052979
-0.04298588114
-0.03748851409
-0.0285925517
-0.01725836768
-0.005841381737
0.002007134071
0.002755268414
-0.002356545937
-0.02808336294
-0.0294209733
-0.03057091995
-0.03159717541
-0.03315660401
-0.03559106724
-0.03897520511
-0.04318656775
-0.04790105992
-0.05255963192
-0.05634519942
-0.05820423349
-0.05695023225
-0.05150172024
-0.04128538029
-0.02684845348
-0.01061419196
0.002670130448
0.007335063279
0.003588324702
-0.03616733537
-0.037178243
-0.03778934795
-0.03816711689
-0.03924399121
-0.04150992337
-0.04509418313
-0.04988093995
-0.05551874927
-0.06138339664
-0.06654089321
-0.06974672435
-0.06952300457
-0.06436065676
-0.05311461213
-0.03569057413
-0.01415275149
0.006026136151
0.01681439101
0.01667497422
-0.04566890909
-0.04593620615
-0.04537259839
-0.04439987804
-0.04439387704
-0.04601974918
-0.04943217279
-0.05448290892
-0.06075795196
-0.06754273227
-0.07377728827
-0.07803776339
-0.07858887287
-0.0735494515
-0.06124185462
-0.04084171368
-0.01365021582
0.01482576371
0.03449405512
0.04143126663
-0.05761572835
-0.05615511885
-0.05321212998
-0.04982440431
-0.04798192602
-0.0484550318
-0.05132438202
-0.05632869413
-0.06292701913
-0.07026420812
-0.07712077735
-0.08188010049
-0.08256119623
-0.07695510205
-0.06293334328
-0.03900092502
-0.005479230223
0.03290802613
0.06483867981
0.08340964241
-0.07425891467
-0.06891893215
-0.06127212729
-0.05394743198
-0.04946015963
-0.0483499044
-0.0504157314
-0.05515997102
-0.06182708962
-0.06935997271
-0.07633588103
-0.08091446284
-0.08085048778
-0.07359607356
-0.05657846222
-0.02766943986
0.01385544608
0.06482406778
0.1137362028
0.1494241299
-0.1026579553
-0.08666708626
-0.06917330021
-0.05584653214
-0.0480521115
-0.04518932523
-0.04644595867
-0.050931321
-0.05758034733
-0.06509106502
-0.07182948734
-0.07571876555
-0.07423390566
-0.06443895142
-0.04317780988
-0.007434444847
0.04500009764
0.1136616023
0.1900045044
0.2568479984
-0.1747673007
-0.1138715212
-0.07324143246
-0.05187811584
-0.04127125102
-0.03739961923
-0.03854575545
-0.0433273788
-0.05030827324
-0.0579669294
-0.06456524008
-0.06787379841
-0.06514715979
-0.05310156247
-0.02791090239
0.01486125353
0.08047294048
0.1748590439
0.3026117785
0.4508819298
-0.3546514665
-0.154268886
-0.06994433575
-0.04272668838
-0.03142457227
-0.0274333022
-0.02909785013
-0.03467814663
-0.04239255542
-0.05056635183
-0.05737822932
-0.06060175298
-0.05748698035
-0.04465374661
-0.01765309915
0.02957543186
0.1066514912
0.2313935821
0.4328448469
0.7340820026
)


// ************************************************************************* //
