/*--------------------------------*- C++ -*----------------------------------*\
  =========                 |
  \\      /  F ield         | OpenFOAM: The Open Source CFD Toolbox
   \\    /   O peration     | Website:  https://openfoam.org
    \\  /    A nd           | Version:  13
     \\/     M anipulation  |
\*---------------------------------------------------------------------------*/
FoamFile
{
    format      ascii;
    class       scalarField;
    location    "19";
    object      p_all;
}
// * * * * * * * * * * * * * * * * * * * * * * * * * * * * * * * * * * * * * //


400
(
-1.243109696e-06
-0.0005486028059
-0.000890350054
-0.001017605905
-0.0009385621697
-0.000685576675
-0.0002961884783
0.0001936380189
0.0007473728413
0.001324544061
0.001879533167
0.002359530393
0.002709174079
0.002875389003
0.002816641512
0.00251490892
0.001990593824
0.001300798501
0.0006423506923
4.677112752e-05
0.0005859874287
5.161328669e-06
-0.0003582702737
-0.0005003266902
-0.0004694021501
-0.0002920827744
2.246963691e-06
0.0003843067766
0.0008226894287
0.001280159691
0.001716895752
0.002081761903
0.002324399571
0.002397461277
0.002267081438
0.001924465582
0.001396300889
0.0007475743655
0.000150390317
-0.0005120196665
0.000949624137
0.0003057636896
-9.511183488e-05
-0.0002411514018
-0.0002347062806
-0.0001058427893
0.0001213635619
0.0004256020488
0.0007831434489
0.00116206641
0.001530381514
0.001834183463
0.00202350036
0.002049618916
0.001877403631
0.001497021355
0.0009324045258
0.0002400528289
-0.0004579593269
-0.001294513436
0.0009728627423
0.0002553413216
-0.0001944234545
-0.0003463558865
-0.0003552104777
-0.0002577577183
-7.466917718e-05
0.0001814282555
0.0004969643794
0.0008516545418
0.001204485733
0.001512396702
0.001714661575
0.001750783543
0.001571903385
0.001154625977
0.0005107360991
-0.0003130729253
-0.001227835963
-0.002377961439
0.0004771891796
-0.0002876484962
-0.0007660089229
-0.0009172515613
-0.0009377456652
-0.0008687065793
-0.0007251330202
-0.0005075215078
-0.0002156402463
0.0001412231623
0.0005326488537
0.0009103718884
0.001203214115
0.001330339494
0.001215369359
0.0008051276844
8.554896669e-05
-0.0009113363617
-0.0021206245
-0.003648294532
-0.0006890585274
-0.001469245538
-0.001957742919
-0.002108250525
-0.002150338094
-0.002126164644
-0.002040877875
-0.001877340495
-0.001614389839
-0.001241661757
-0.0007747155429
-0.0002580755894
0.0002256818961
0.0005667999785
0.0006434386945
0.000347536823
-0.0003864688032
-0.001556813335
-0.003126796045
-0.005133024036
-0.002663257099
-0.00342446152
-0.003915792899
-0.004080535759
-0.00417700783
-0.004244944179
-0.004274723797
-0.004224428799
-0.004041715018
-0.003682878911
-0.003133431866
-0.002419123098
-0.001625813779
-0.0008958198912
-0.0004173042172
-0.00039114346
-0.0009804239564
-0.002252210395
-0.004223530485
-0.006817963555
-0.005554528072
-0.006269087113
-0.006766851369
-0.006980033861
-0.007192264106
-0.007438676325
-0.007690720903
-0.007874126415
-0.007892615759
-0.007649913592
-0.007075959711
-0.006147841755
-0.004932290648
-0.003593930725
-0.00240365339
-0.001704807272
-0.001833750676
-0.003005349461
-0.005358036753
-0.008650626836
-0.009432263386
-0.01007842943
-0.01059477619
-0.01090607535
-0.01131999976
-0.01186797189
-0.01250120005
-0.01310742137
-0.01353365979
-0.0136077455
-0.01316595349
-0.01210441486
-0.01041178566
-0.008241340488
-0.005942457039
-0.004049393891
-0.003178680824
-0.003831957582
-0.006414903073
-0.01047896567
-0.01431117401
-0.01487022736
-0.01541670488
-0.01587482609
-0.01658085997
-0.01756864515
-0.01877285879
-0.02004233355
-0.02115844844
-0.0218526779
-0.02183537961
-0.02085005705
-0.0187503893
-0.01560003202
-0.01177702604
-0.008021494871
-0.005345987988
-0.004747437212
-0.007168551004
-0.01196578784
-0.02014572912
-0.02059626842
-0.02116600035
-0.02178675848
-0.02284005615
-0.02437561213
-0.02632142185
-0.02849274162
-0.03060396185
-0.03227783284
-0.03306840933
-0.03251371211
-0.03025635921
-0.02615434948
-0.02050304697
-0.0141849433
-0.008675310199
-0.005712445794
-0.00720593141
-0.01245275801
-0.02684503371
-0.02715136157
-0.02769147679
-0.02841065199
-0.02977469266
-0.03187174386
-0.03463824711
-0.03786575006
-0.0412072016
-0.04417627911
-0.04615832568
-0.04644918626
-0.04443450204
-0.03963344612
-0.03209712425
-0.02267795507
-0.0132489273
-0.006470972318
-0.005795264706
-0.01075228057
-0.03432122947
-0.03440546327
-0.03477672709
-0.03539076374
-0.03687603293
-0.03939133404
-0.04289809773
-0.04717253271
-0.05181225391
-0.05622884314
-0.05964961169
-0.06116125441
-0.05975157674
-0.05463012676
-0.04541813009
-0.0326796923
-0.01843604097
-0.006231555489
-0.001661659747
-0.004862508281
-0.04259503932
-0.04226567679
-0.04218218706
-0.0422818648
-0.04349791766
-0.04609800798
-0.05007812079
-0.05519594201
-0.06098828934
-0.06676820073
-0.07161226401
-0.07438650844
-0.07380837917
-0.06865347458
-0.05805336777
-0.04204580645
-0.02242634487
-0.003245584504
0.007356761501
0.008349427788
-0.05199524387
-0.05074718284
-0.04966477343
-0.04856581639
-0.04891250473
-0.05110368476
-0.05515345245
-0.06077415204
-0.0674113886
-0.07426504437
-0.08025871048
-0.08405431873
-0.08411193595
-0.07882230274
-0.06683080132
-0.04751382001
-0.02211959136
0.005508423573
0.02472082119
0.03353117862
-0.06364172602
-0.06017649737
-0.05708596226
-0.05375363375
-0.05245413727
-0.05366682554
-0.05734848207
-0.06311982162
-0.0702419563
-0.07777994611
-0.08447287067
-0.08876889036
-0.0888854657
-0.08283066256
-0.06884557393
-0.04561819165
-0.0137507087
0.02441741325
0.05553972525
0.07735500625
-0.0801744617
-0.07106464424
-0.06411280514
-0.05715835483
-0.05342424701
-0.05320640586
-0.05624719297
-0.06189930043
-0.06924228292
-0.07709976122
-0.08399633468
-0.08813877047
-0.08747108479
-0.07965212775
-0.06247948809
-0.03405380398
0.005557878444
0.05859133215
0.1058184202
0.1480627657
-0.1104990935
-0.08584811334
-0.07160250582
-0.05896909573
-0.05191138951
-0.0498788708
-0.05209538179
-0.05749820949
-0.06484660332
-0.07269471269
-0.07932730637
-0.08270365281
-0.08051428508
-0.0698855768
-0.04823524241
-0.01272890102
0.03822761536
0.1071238786
0.1779704006
0.2564680132
-0.1684323413
-0.09990504396
-0.07500802604
-0.05479935233
-0.04462015779
-0.04158431141
-0.04371343471
-0.04937380092
-0.05700675556
-0.06495920432
-0.07135081425
-0.07397154644
-0.07012403037
-0.0570127338
-0.03103191137
0.01192246455
0.07559030259
0.1663943973
0.2761520272
0.4376947085
-0.3984238509
-0.1380969279
-0.07497109092
-0.04709110531
-0.03355201524
-0.03003059484
-0.03279937849
-0.03925861835
-0.04754958165
-0.05592874903
-0.06249014696
-0.06502132211
-0.060989995
-0.04696819583
-0.01875923771
0.02992959917
0.1069474374
0.2334180189
0.4198707201
0.7800141448
)


// ************************************************************************* //
