/*--------------------------------*- C++ -*----------------------------------*\
  =========                 |
  \\      /  F ield         | OpenFOAM: The Open Source CFD Toolbox
   \\    /   O peration     | Website:  https://openfoam.org
    \\  /    A nd           | Version:  13
     \\/     M anipulation  |
\*---------------------------------------------------------------------------*/
FoamFile
{
    format      ascii;
    class       surfaceScalarField;
    location    "19";
    object      phi;
}
// * * * * * * * * * * * * * * * * * * * * * * * * * * * * * * * * * * * * * //

dimensions      [0 3 -1 0 0 0 0];

internalField   nonuniform List<scalar> 
760
(
2.597501831e-06
-2.597526103e-06
-3.871633363e-05
4.131369988e-05
-0.0001248209131
8.610520775e-05
-0.0002410678509
0.0001162468151
-0.0003727564661
0.0001316888169
-0.000507511749
0.0001347547742
-0.0006344980516
0.0001269865923
-0.0007432340361
0.0001087366363
-0.0008230451098
7.981172499e-05
-0.0008635619718
4.051808601e-05
-0.0008562723644
-7.289172627e-06
-0.0007968516895
-5.942090374e-05
-0.0006876210102
-0.0001092309484
-0.0005393171809
-0.0001483039777
-0.0003711699995
-0.000168147641
-0.0002085298942
-0.000162640572
-7.791696842e-05
-0.0001306128985
-1.177491574e-07
-7.779908704e-05
1.85996952e-05
-1.871757919e-05
1.859985151e-05
-4.423642483e-05
4.163926956e-05
-0.0001931807519
0.0001902587099
-0.0004350616484
0.0003279867026
-0.0007397323591
0.0004209164664
-0.001075726306
0.0004676821571
-0.001414219034
0.0004732467156
-0.00172854429
0.0004413123577
-0.001992895821
0.0003730910666
-0.002182074999
0.0002689930809
-0.002273048073
0.0001314920651
-0.002248321989
-3.20154993e-05
-0.002100429297
-0.0002073137984
-0.001836526446
-0.0003731349221
-0.001481373158
-0.0005034582922
-0.001077115539
-0.0005724052222
-0.0006783649954
-0.0005613906504
-0.0003420962534
-0.0004668816296
-0.0001134206049
-0.0003064749605
-9.701820992e-06
-0.0001224348855
8.898346863e-06
-0.0001017537848
0.0001433931429
-0.0003689650618
0.0004574704488
-0.0007596433805
0.0007186649571
-0.001229259589
0.0008905317965
-0.001735076167
0.0009734973142
-0.002237593103
0.0009757648425
-0.002699603807
0.000903325085
-0.003085058091
0.0007585478384
-0.003359302312
0.0005432392396
-0.003491345204
0.0002635350057
-0.003458046476
-6.531600466e-05
-0.003249525588
-0.0004158349864
-0.002874666092
-0.0007479939081
-0.002365085165
-0.00101303943
-0.001775593262
-0.001161897756
-0.001179050942
-0.001157932827
-0.0006542885522
-0.0009916434741
-0.0002679337289
-0.0006928286407
-5.44172649e-05
-0.0003359497767
-4.551876808e-05
-0.0001559685817
0.0002993624381
-0.000536726926
0.0008382295396
-0.001067794926
0.001249731827
-0.00168794977
0.001510685293
-0.00234456765
0.001630114453
-0.002990824432
0.001622022684
-0.003582937571
0.001495439538
-0.004078421716
0.001254032139
-0.004436224431
0.0009010421939
-0.004619063989
0.0004463748116
-0.004597786841
-8.659327005e-05
-0.004357229671
-0.0006563920094
-0.003902771282
-0.001202452641
-0.003266189638
-0.001649621198
-0.002508641141
-0.001919445387
-0.001717656231
-0.00194891614
-0.0009951005027
-0.001714198287
-0.0004355910551
-0.001252337455
-0.0001007808435
-0.0006707601029
-0.0001462996549
-0.0002045109263
0.0005038729592
-0.0006888905787
0.001322608554
-0.001348710714
0.001909550989
-0.002106376233
0.002268349267
-0.00290055933
0.002424296487
-0.003679477859
0.002400940587
-0.004395729047
0.002211691833
-0.005003198968
0.001861502665
-0.005456351109
0.001354194452
-0.0057119221
0.0007019450692
-0.005732874551
-6.564079191e-05
-0.005494454829
-0.0008948110754
-0.004992134676
-0.001704773436
-0.004250510243
-0.002391245953
-0.003330935156
-0.002839019952
-0.0023334963
-0.002946354482
-0.001387458623
-0.002660234899
-0.0006262022355
-0.002013594132
-0.000151183971
-0.001145778537
-0.0002974837697
-0.0002466015055
0.0007504746303
-0.0008217797516
0.001897786331
-0.00159551115
0.002683280209
-0.002475942956
0.003148779367
-0.003394851862
0.003343205798
-0.004297719621
0.003303808844
-0.005136077451
0.003050050347
-0.00586258651
0.002588011177
-0.006428842661
0.001920450914
-0.006785757293
0.001058859292
-0.006886487503
3.50887731e-05
-0.006692305321
-0.001088994477
-0.006181883509
-0.002215197626
-0.005363999791
-0.003209130306
-0.004291781668
-0.00391123745
-0.003073171279
-0.004164964975
-0.001868082303
-0.003865322558
-0.0008616750031
-0.003020002089
-0.0002130900671
-0.001794362606
-0.0005105733765
-0.0002812498133
0.001031723892
-0.0009315484977
0.002548084142
-0.001800486744
0.003552217389
-0.002784886217
0.004133178558
-0.003811850764
0.004370170712
-0.004826399901
0.004318358679
-0.00578150744
0.004005158496
-0.006631130321
0.003437632935
-0.007326086359
0.00261540683
-0.007812547557
0.001545319069
-0.008033277212
0.0002558158736
-0.007932551747
-0.001189723116
-0.007466044591
-0.002681707454
-0.006617033917
-0.004058141283
-0.005418332528
-0.00510993752
-0.003975006313
-0.005608289952
-0.002475125681
-0.005365201277
-0.001168035902
-0.004327091695
-0.000295833686
-0.002666563911
-0.000806406753
-0.0003071549164
0.001338878452
-0.001013674356
0.003254602505
-0.001954355947
0.004492899009
-0.003017718064
0.005196542169
-0.004128422163
0.005480875672
-0.00523326275
0.005423199799
-0.006289232338
0.005061128381
-0.007254514744
0.004402914315
-0.008082245179
0.003443136887
-0.008716730495
0.002179801681
-0.009092338533
0.0006314197921
-0.009136314957
-0.001145750208
-0.008777681516
-0.003040340711
-0.007965075986
-0.004870745112
-0.00669557127
-0.006379440919
-0.005052298582
-0.007251561282
-0.003237756068
-0.007179743731
-0.001571257065
-0.005993590501
-0.0004098743372
-0.003827947818
-0.001216282624
-0.0003232324189
0.001662111011
-0.001064126646
0.003995497026
-0.002047974857
0.005476747691
-0.003157515079
0.006306083652
-0.004316867052
0.00664022854
-0.005476655688
0.006582988362
-0.006600498253
0.006184970459
-0.007654189084
0.005456604444
-0.0085974523
0.004386400144
-0.009377807782
0.002960154852
-0.009926612639
0.001180222023
-0.01015853149
-0.0009138334594
-0.009977097708
-0.003221773137
-0.009290685084
-0.005557156168
-0.008044635021
-0.007625490993
-0.006273110868
-0.009023085522
-0.004163060606
-0.009289796622
-0.002092779532
-0.008063872641
-0.0005666278488
-0.005354101611
-0.001782911888
-0.000329597194
0.001991708101
-0.001081747681
0.004747648133
-0.002075964128
0.006470964519
-0.003190723398
0.00742084332
-0.004351072434
0.007800578275
-0.005513345363
0.007745261584
-0.006650364039
0.007321989506
-0.007739187115
0.006545428419
-0.008751284373
0.005398498465
-0.009644377725
0.00385324638
-0.01035557683
0.001891420148
-0.0107964843
-0.0004729257807
-0.01085313609
-0.003165121192
-0.01039527261
-0.006015020901
-0.009305313867
-0.008715451368
-0.007538203197
-0.01079019722
-0.005218013146
-0.01160998777
-0.002741943204
-0.01053994287
-0.0007780442744
-0.007317999733
-0.002560953786
-0.0003290125135
0.002320720737
-0.001071669601
0.00549030531
-0.00204182303
0.007441117808
-0.003113864471
0.008492884688
-0.004215155689
0.008901869863
-0.005309827469
0.008839934595
-0.006382559725
0.008394724101
-0.007425291313
0.007588162319
-0.008426528789
0.006399737143
-0.009361959094
0.004788675342
-0.01018529934
0.002714758771
-0.01081888367
0.0001606585172
-0.01114645718
-0.002837548563
-0.01101122019
-0.006150258505
-0.01023314219
-0.009493528473
-0.00866417295
-0.012359166
-0.006307777417
-0.0139663811
-0.003502950541
-0.0133447702
-0.001054968949
-0.009765982348
-0.003615921764
-0.0003289108185
0.0026496315
-0.001049634493
0.006211028396
-0.001963855918
0.008355338628
-0.002940823945
0.009469852722
-0.003912650559
0.00987369668
-0.004854546652
0.00978183217
-0.00576619843
0.009306379288
-0.006657730508
0.008479697054
-0.007539079832
0.007281085871
-0.008410608957
0.005660203878
-0.009252956103
0.003557106698
-0.01001485282
0.0009225561571
-0.01059766463
-0.002254737841
-0.01084171708
-0.005906206025
-0.01052236742
-0.009812877363
-0.009383890241
-0.01349764395
-0.007257618061
-0.01609265285
-0.004316035767
-0.01628635455
-0.001402877145
-0.01267914568
-0.005018799967
-0.00034432044
0.002993951328
-0.001047138063
0.006913845082
-0.001880777812
0.009188977809
-0.002708334009
0.01029740934
-0.003472527344
0.01063789068
-0.004165835297
0.01047514147
-0.004807364263
0.009947910338
-0.005428333433
0.009100668389
-0.006062642672
0.007915395059
-0.006739012389
0.006336573346
-0.007471886139
0.004289981639
-0.008248548552
0.00169921944
-0.009009719038
-0.001493566665
-0.009623592869
-0.005292330714
-0.009857897693
-0.009578573399
-0.009374664462
-0.01398087863
-0.007810602967
-0.01765671433
-0.005057253955
-0.01903970078
-0.0018131664
-0.01592323282
-0.006831962832
-0.0004024865068
0.003396437413
-0.001117154432
0.007628512116
-0.001854643731
0.009926466421
-0.002475085544
0.01091785128
-0.002945388212
0.01110819407
-0.003286665274
0.01081642008
-0.00354394364
0.01020518946
-0.003772101234
0.009328826355
-0.004029173946
0.008172468567
-0.004371699426
0.006679101271
-0.004848782354
0.004767066164
-0.005491857287
0.002342292924
-0.006296202345
-0.0006892218913
-0.00718906634
-0.004399466986
-0.007980881438
-0.008786760611
-0.008310779912
-0.01365098144
-0.007648815935
-0.01831867917
-0.005525123058
-0.02116339277
-0.002248227971
-0.01920012808
-0.009080193268
-0.0005495454761
0.003945982938
-0.001337759645
0.008416725717
-0.001963665079
0.01055237068
-0.002302692011
0.01125687647
-0.002374726377
0.01118022808
-0.002248411115
0.01069010688
-0.002003457376
0.009960236834
-0.001720438728
0.009045807635
-0.001479346017
0.007931375726
-0.001359937927
0.006559694074
-0.001440664207
0.004847792088
-0.001793771837
0.002695399718
-0.002472872173
-1.01181787e-05
-0.003484637663
-0.003387699577
-0.004731955777
-0.007539443015
-0.005915612775
-0.01246732826
-0.006428610313
-0.01780568617
-0.005436849943
-0.02215515391
-0.002617405336
-0.02201956828
-0.01169759664
-0.0008523810369
0.004798363788
-0.00179840175
0.009362745706
-0.002256380058
0.01101034732
-0.002179815474
0.01118030912
-0.001699231805
0.01069964472
-0.00095822942
0.009949106535
-8.015559037e-05
0.00908216498
0.000829101015
0.008136550997
0.001672759654
0.007087717371
0.00235593156
0.005876523449
0.002780759536
0.004422964775
0.002844999088
0.002631160917
0.002445916255
0.0003889640451
0.001496508898
-0.002438296682
-2.776772568e-05
-0.00601516607
-0.00197474017
-0.01052035084
-0.003804538331
-0.01597588295
-0.004426472673
-0.02153321851
-0.002739171263
-0.02370687436
-0.01443676588
-0.001375399149
0.006173762267
-0.002508190824
0.01049553559
-0.002559568015
0.0110617241
-0.001763055529
0.01038379563
-0.0004630844709
0.00939967341
0.001097530115
0.00838849266
0.002755129554
0.007424564749
0.004389436098
0.006502243842
0.005900345076
0.005576810436
0.007191575704
0.004585295162
0.008160163535
0.003454377452
0.00868981771
0.002101507741
0.008646940205
0.0004318389625
0.007883790543
-0.001675150267
0.006259594467
-0.004390973907
0.003728196613
-0.007988956086
0.000593561214
-0.01284124795
-0.002043521073
-0.0188961398
-0.002312513011
-0.02343787828
-0.01674928095
-0.002138880197
0.008312641834
-0.002957461159
0.01131411479
-0.001777133276
0.009881396754
0.0003758826178
0.008230781196
0.002883036054
0.006892520298
0.00546223484
0.005809292993
0.007967134789
0.004919663579
0.01030596227
0.004163417517
0.01240759895
0.003475175279
0.01419885658
0.002794036005
0.01559228053
0.00206095337
0.01647841974
0.001215374388
0.01671666142
0.0001935965935
0.01613070326
-0.001089190419
0.01450065282
-0.002760921737
0.01158771972
-0.005076025773
0.007301653826
-0.008555179416
0.00233702914
-0.01393151206
-0.0009332178653
-0.0201676265
-0.01768250117
-0.002474222287
0.01078686444
2.003382164e-07
0.008839689093
0.004171984731
0.005709609436
0.0082847856
0.004117979192
0.01202999566
0.003147311178
0.01538416658
0.002455122665
0.01835474324
0.001949086527
0.02095358609
0.001564574837
0.02318166162
0.001247101689
0.02502012922
0.0009555692951
0.02642398237
0.0006570980638
0.02731389174
0.0003254638558
0.02757044803
-6.29605732e-05
0.02702893206
-0.0005476726534
0.02544466462
-0.001176654706
0.02245452077
-0.002085883039
0.01755237798
-0.003653032145
0.01035484507
-0.006733984453
0.002445855881
-0.01225863756
-0.01523664664
0.01078686475
0.01962655385
0.02533616249
0.02945414175
0.03260145274
0.03505657452
0.0370056611
0.03857023788
0.03981734088
0.04077291036
0.04143001019
0.0417554732
0.04169251004
0.04114483728
0.03996818084
0.03788229765
0.03422926645
0.02749528207
0.0152366461
)
;

boundaryField
{
    movingWall
    {
        type            calculated;
        value           uniform 0;
    }
    fixedWalls
    {
        type            calculated;
        value           uniform 0;
    }
    frontAndBack
    {
        type            empty;
    }
}


// ************************************************************************* //
