/*--------------------------------*- C++ -*----------------------------------*\
  =========                 |
  \\      /  F ield         | OpenFOAM: The Open Source CFD Toolbox
   \\    /   O peration     | Website:  https://openfoam.org
    \\  /    A nd           | Version:  13
     \\/     M anipulation  |
\*---------------------------------------------------------------------------*/
FoamFile
{
    format      ascii;
    class       surfaceScalarField;
    location    "19";
    object      phi_0;
}
// * * * * * * * * * * * * * * * * * * * * * * * * * * * * * * * * * * * * * //

dimensions      [0 3 -1 0 0 0 0];

internalField   nonuniform List<scalar> 
760
(
-1.321293431e-05
1.322266165e-05
-7.198255515e-05
5.876896827e-05
-0.000161982764
8.999978672e-05
-0.0002650675532
0.0001030846413
-0.0003680227934
0.0001029552683
-0.0004612294507
9.320688605e-05
-0.0005374352993
7.620613164e-05
-0.0005909074221
5.347221062e-05
-0.000617176765
2.626930883e-05
-0.0006132812171
-3.895614122e-06
-0.0005781970678
-3.508409227e-05
-0.0005136410279
-6.4555899e-05
-0.0004245279175
-8.911299313e-05
-0.0003192205298
-0.0001053073632
-0.0002092250477
-0.0001099955405
-0.0001081807514
-0.0001010443539
-2.998508601e-05
-7.819563583e-05
1.409642749e-05
-4.408142661e-05
2.188082535e-05
-7.784316678e-06
2.188088711e-05
-6.865870873e-05
8.188070271e-05
-0.0002456105568
0.0002357202502
-0.0004931352233
0.0003375244974
-0.0007717462965
0.0003816956819
-0.001049691028
0.0003808997451
-0.001302129242
0.0003456447556
-0.001509612987
0.0002836895789
-0.001656821739
0.0002006806498
-0.001732150289
0.0001015976578
-0.001728317148
-7.728963795e-06
-0.001642958555
-0.0001204429457
-0.001480699428
-0.0002268153158
-0.001253850636
-0.0003159619829
-0.0009829511027
-0.0003762069114
-0.0006959668744
-0.0003969796297
-0.0004256869165
-0.000371324151
-0.0002050256541
-0.0002988567515
-5.986457041e-05
-0.0001892423916
-5.202491775e-07
-6.712858967e-05
2.136061911e-05
-0.0001228416589
0.0002047219412
-0.0004146604687
0.0005275387953
-0.0008080638129
0.000730927891
-0.001246243229
0.0008198754442
-0.001683437043
0.0008180938734
-0.002082949779
0.00074515751
-0.00241529893
0.0006160386122
-0.002656808348
0.0004421899607
-0.002789215576
0.0002340049572
-0.002800712928
3.768510374e-06
-0.002686367238
-0.000234788562
-0.002451657343
-0.0004615252539
-0.002113140377
-0.0006544790655
-0.001699629887
-0.0007897175048
-0.001251348488
-0.0008452610051
-0.0008164961033
-0.0008061764223
-0.0004445330495
-0.0006708196615
-0.0001762244732
-0.0004575508563
-3.22214718e-05
-0.0002111315359
-1.086084696e-05
-0.0001719414069
0.0003766634022
-0.0005721122185
0.0009277095469
-0.001105115674
0.001263931202
-0.00169675315
0.001411512954
-0.002288905508
0.001410246313
-0.002835216194
0.001291468109
-0.003297921757
0.001078743993
-0.00364584648
0.0007901144844
-0.003853858354
0.0004420167237
-0.003903422389
5.333243787e-05
-0.003785540485
-0.0003526705482
-0.003502093556
-0.0007449722461
-0.003069680621
-0.001086892005
-0.002521410458
-0.001337987666
-0.00190714375
-0.001459527672
-0.001290381779
-0.00142293834
-0.000740489092
-0.001220712278
-0.0003201759078
-0.0008778640313
-7.108884746e-05
-0.0004602186796
-8.194968644e-05
-0.0002168508065
0.0005935142595
-0.000718277166
0.001429136136
-0.001384606518
0.001930260587
-0.002125550739
0.002152457065
-0.002872305966
0.002157001423
-0.003570703188
0.00198986528
-0.004176165044
0.001684205856
-0.004650569287
0.001264518678
-0.004961113626
0.0007525610041
-0.005080995278
0.0001732139569
-0.004992187173
-0.0004414787838
-0.004688647607
-0.00104851194
-0.004181357476
-0.001594182171
-0.003502665643
-0.002016679461
-0.002709181217
-0.002253011974
-0.001880741429
-0.002251378044
-0.001112764714
-0.001988688929
-0.0005006226181
-0.00149000608
-0.0001190984764
-0.0008417429392
-0.000201048158
-0.0002571757409
0.000850689949
-0.0008507208855
0.002022681471
-0.001641129241
0.002720669007
-0.002524806941
0.003036134599
-0.003424596898
0.003056791149
-0.004280604976
0.002845873244
-0.005043057051
0.002446657954
-0.005667611888
0.001889073479
-0.006113232342
0.001198181398
-0.00634248857
0.0004024700543
-0.006324509337
-0.0004594581105
-0.00603942481
-0.001333596546
-0.005485661307
-0.002147945693
-0.00468779027
-0.002814550495
-0.00370405397
-0.003236748164
-0.002630031077
-0.003325400861
-0.001593547352
-0.003025172691
-0.0007360797458
-0.002347473659
-0.0001820451506
-0.001395777591
-0.0003830932263
-0.0002909925487
0.001141682439
-0.0009635008044
0.002695189606
-0.001862980155
0.00362014832
-0.002876363878
0.004049518259
-0.00392111006
0.004101537232
-0.004934145092
0.003858908166
-0.00586263146
0.00337514426
-0.006657463667
0.002683905571
-0.007269749966
0.001810467603
-0.007650265486
0.0007829854507
-0.00775221194
-0.0003575117346
-0.007536434929
-0.001549373597
-0.00698103152
-0.002703349049
-0.006093277859
-0.003702304125
-0.004923703697
-0.004406322265
-0.003578051855
-0.004671052597
-0.002219512254
-0.004383712334
-0.001050431851
-0.003516554095
-0.0002683601574
-0.002177849367
-0.0006514532902
-0.0003157950573
0.001457477476
-0.001048172976
0.003427567209
-0.002033449449
0.004605424664
-0.003153260858
0.005169329662
-0.004322948145
0.005271224553
-0.005479184404
0.005015144394
-0.006568877663
0.004464837444
-0.007540783337
0.003655811092
-0.008340304314
0.002609988454
-0.0089075697
0.00135025073
-0.009179308844
-8.577263587e-05
-0.009093688653
-0.001634993806
-0.008601543898
-0.003195493716
-0.007681549068
-0.004622298848
-0.006361905403
-0.005725965939
-0.00474443851
-0.006288519449
-0.003021856245
-0.006106294562
-0.001469075413
-0.005069334851
-0.0003881061638
-0.00325881863
-0.001039559388
-0.0003290679851
0.001786545454
-0.001096004841
0.004194503846
-0.002134219743
0.005643639482
-0.003324042071
0.006359151962
-0.004581869499
0.00652905195
-0.005847186225
0.006280461048
-0.007070058757
0.005687709902
-0.008201067822
0.004786820068
-0.009184351579
0.003593272143
-0.009953924864
0.002119823961
-0.01043311726
0.0003934197563
-0.01053939471
-0.001528716347
-0.0101923552
-0.0035425332
-0.00933167047
-0.005482983445
-0.007944567249
-0.007113069144
-0.0061043185
-0.008128768254
-0.004011845099
-0.00819876797
-0.002014027693
-0.00706715214
-0.0005526381857
-0.004720208084
-0.00159219753
-0.0003297270736
0.002116272517
-0.001101449371
0.004966226062
-0.002150895637
0.006693085698
-0.003360232028
0.007568488297
-0.004649684269
0.007818504096
-0.00596451819
0.007595294834
-0.00726172306
0.006984914638
-0.008498759433
0.006023856348
-0.009625118481
0.004719631162
-0.01057667405
0.003071379527
-0.01127266745
0.001089413211
-0.01161624702
-0.001185136695
-0.01149977664
-0.003659003624
-0.01081876024
-0.006163999829
-0.009501387779
-0.008430441567
-0.007559246246
-0.01007090983
-0.005159873773
-0.01059814047
-0.002695549842
-0.009531475979
-0.0007739721194
-0.006641785762
-0.002366169618
-0.0003199439101
0.002436216426
-0.001066662984
0.005712945126
-0.002080310879
0.007706733534
-0.003246574657
0.008734751966
-0.004491935717
0.009063865046
-0.005770392401
0.008873751448
-0.007049767658
0.008264289836
-0.00829997068
0.007274059325
-0.009483741402
0.005903401871
-0.01054942575
0.004137063892
-0.01142509535
0.001965082813
-0.01201362501
-0.000596606915
-0.01219318115
-0.003479447471
-0.01182025709
-0.006536923955
-0.01075457551
-0.009496123155
-0.008912923342
-0.01191256202
-0.006370134174
-0.01314092966
-0.003498487693
-0.01240312238
-0.001062979394
-0.009077294043
-0.003429149012
-0.0003074980063
0.002743714383
-0.001006812245
0.006412259285
-0.001938698191
0.008638619422
-0.002992331084
0.009788384744
-0.004103318893
0.01017485272
-0.005238031864
0.01000846435
-0.006379304809
0.009405562777
-0.007514871387
0.008409625929
-0.008628232065
0.007016762556
-0.009690834062
0.00519966593
-0.01065416604
0.002928414708
-0.01143855469
0.0001877817448
-0.01193029019
-0.002987711944
-0.01196557354
-0.00650164067
-0.0113440063
-0.01011769042
-0.009868924598
-0.01338764372
-0.007459862285
-0.01554999201
-0.004363554446
-0.01549943014
-0.001425399959
-0.01201544846
-0.004854548931
-0.0003090924049
0.003052806726
-0.0009560339002
0.007059200585
-0.00176928389
0.009451869341
-0.002640490501
0.0106595913
-0.003519638572
0.01105400073
-0.004391351798
0.01088017753
-0.005258582129
0.01027279309
-0.006131592361
0.009282636203
-0.00701996619
0.007905136371
-0.007925712916
0.006105412702
-0.008834647292
0.003837349021
-0.009706575143
0.001059709492
-0.01045289342
-0.002241393701
-0.01092595016
-0.006028583987
-0.01089639724
-0.01014724334
-0.0100657283
-0.01421831258
-0.008157654346
-0.01745806595
-0.005167648769
-0.0184894357
-0.00185428531
-0.01532881189
-0.006708834146
-0.0003554971232
0.003408303835
-0.0009740077227
0.007677711019
-0.001647246925
0.01012510849
-0.002270402213
0.01128274656
-0.002818986249
0.01160258476
-0.003306232426
0.01136742371
-0.003762273632
0.01072883427
-0.004224049674
0.009744412253
-0.004729455697
0.008410542337
-0.00531317165
0.006689128671
-0.006000071651
0.004524249047
-0.006795109639
0.001854747444
-0.007663672155
-0.001372831188
-0.008505752192
-0.005186503986
-0.00911539606
-0.009537599497
-0.009144104635
-0.01418960393
-0.008129337426
-0.0184728331
-0.005711515563
-0.02090725752
-0.002318322537
-0.01872200497
-0.009027156583
-0.0005006452577
0.003908949092
-0.001152116729
0.008329182389
-0.001676300036
0.01064929177
-0.001983775769
0.01159022227
-0.002098398026
0.01171720701
-0.002078948005
0.01134797369
-0.0019920477
0.01064193393
-0.001904974107
0.009657338648
-0.001882872383
0.008388440546
-0.001989927421
0.006796183637
-0.002286334925
0.004820656528
-0.002822445083
0.002390857571
-0.003625581852
-0.0005696943952
-0.004671913192
-0.004140172578
-0.005837237494
-0.00837227513
-0.006809680813
-0.01321716054
-0.007018011538
-0.01826450234
-0.005717053913
-0.02220821502
-0.002739719002
-0.02169933995
-0.01176687553
-0.0008311593797
0.004740108491
-0.001605696296
0.009103719251
-0.001952573694
0.01099616915
-0.001841722323
0.01147937085
-0.001388445367
0.01126393003
-0.0007216812024
0.01068120949
4.426665074e-05
0.009875985993
0.0008122878231
0.008889317435
0.001491211434
0.007709516925
0.001994375566
0.006293019499
0.002234674194
0.004580357916
0.002124793571
0.002500738191
0.001579891685
-2.479252146e-05
0.0005421293725
-0.00310241027
-0.0009868045327
-0.00684334119
-0.002830414536
-0.0113735505
-0.00446060232
-0.01663431461
-0.004811288117
-0.021857529
-0.002944529804
-0.02356609823
-0.01471140525
-0.001465902818
0.00620601132
-0.002380617245
0.0100184336
-0.002374876494
0.01099042838
-0.001605707725
0.010710202
-0.0003524702034
0.01001069247
0.001160257813
0.009168481457
0.002768102065
0.008268141675
0.004345612572
0.007311806864
0.005787708727
0.006267420737
0.006994259532
0.005086468669
0.007862008551
0.003712608881
0.008279133244
0.00208361352
0.00812108206
0.0001332587301
0.007262125548
-0.002243453718
0.005583215335
-0.00516443096
0.003072276715
-0.008862611801
7.79239232e-05
-0.01363996195
-0.002446454212
-0.01933315071
-0.0026013301
-0.02341122229
-0.01731273528
-0.002365592881
0.008571604179
-0.002964215726
0.01061705622
-0.001923733914
0.009949946515
7.958186053e-05
0.00870688621
0.002532753165
0.007557521035
0.00513760438
0.006563630115
0.007716731205
0.005689014733
0.01015139774
0.004877140254
0.01234632854
0.004072489909
0.01420889839
0.00322389882
0.01563770776
0.002283799473
0.01651512021
0.00120620103
0.01669497084
-4.659186471e-05
0.01602538794
-0.001573870798
0.01430369672
-0.003442739788
0.01133173203
-0.005890646935
0.007054740791
-0.00936297078
0.002201083201
-0.01447949297
-0.001027555879
-0.02018258321
-0.01834029124
-0.00215028331
0.01072188746
-7.199600571e-05
0.008538768558
0.003741662639
0.006136287673
0.007719149749
0.00472939906
0.01156078553
0.003715885161
0.01513947818
0.002984937368
0.01839696279
0.00243153003
0.02129942979
0.001974673198
0.02381022868
0.001561690968
0.02587759996
0.001156527521
0.02742862889
0.0007327705487
0.02836306726
0.0002717626493
0.02857432188
-0.0002578464387
0.02788668925
-0.000886238042
0.02609864464
-0.00165469521
0.02290777572
-0.002699777822
0.01790659925
-0.004361794305
0.01076666459
-0.007339558142
0.002912074742
-0.01232799321
-0.01542821658
0.0107218874
0.01926065598
0.0253969436
0.03012634257
0.03384222763
0.03682716492
0.03925869492
0.04123336811
0.04279505906
0.04395158656
0.04468435713
0.04495611978
0.04469827331
0.04381203532
0.04215734006
0.03945756231
0.03509576795
0.02775620974
0.01542821658
)
;

boundaryField
{
    movingWall
    {
        type            calculated;
        value           uniform 0;
    }
    fixedWalls
    {
        type            calculated;
        value           uniform 0;
    }
    frontAndBack
    {
        type            empty;
    }
}


// ************************************************************************* //
