/*--------------------------------*- C++ -*----------------------------------*\
  =========                 |
  \\      /  F ield         | OpenFOAM: The Open Source CFD Toolbox
   \\    /   O peration     | Website:  https://openfoam.org
    \\  /    A nd           | Version:  13
     \\/     M anipulation  |
\*---------------------------------------------------------------------------*/
FoamFile
{
    format      ascii;
    class       volVectorField;
    location    "19";
    object      U;
}
// * * * * * * * * * * * * * * * * * * * * * * * * * * * * * * * * * * * * * //

dimensions      [0 1 -1 0 0 0 0];

internalField   nonuniform List<vector> 
400
(
(1.102262733e-05 -3.762810516e-05 0)
(-0.0006657843294 0.0004129296395 -1.559532528e-23)
(-0.002184190667 0.0009199079546 0)
(-0.004045488312 0.001312005615 0)
(-0.005968309305 0.001534127921 6.84855609e-25)
(-0.007758133192 0.001568884828 4.146071588e-24)
(-0.009279048447 0.001422705283 -7.378009831e-24)
(-0.01042992404 0.001119076211 7.527592783e-24)
(-0.01113065522 0.0006957162645 -2.095557516e-25)
(-0.01132120719 0.0002030121414 -3.995325025e-24)
(-0.01096651106 -0.0003000215415 5.804993494e-24)
(-0.01006804604 -0.0007471041369 -5.931165551e-23)
(-0.008676810245 -0.001075060514 -6.555558791e-23)
(-0.006901089717 -0.001232579793 -7.788002162e-23)
(-0.004910209767 -0.001192329949 4.576896435e-24)
(-0.002927693141 -0.0009618495953 -4.142456909e-24)
(-0.001206372892 -0.0005913957283 -2.002592572e-22)
(-2.023605595e-05 -0.0001702531491 0)
(0.0005173174293 0.0001716345611 1.531040502e-25)
(0.0002225370945 0.0003056819358 -2.83879482e-24)
(-0.0002631368173 0.0008287863292 1.3738978e-25)
(-0.002701495299 0.003381874635 1.569502133e-23)
(-0.006902550015 0.005600863848 1.569461122e-25)
(-0.01194408128 0.007003533357 -8.513248767e-25)
(-0.01712326686 0.007548764588 1.164536522e-24)
(-0.02196043445 0.007289501944 1.308106841e-23)
(-0.02609340709 0.006318060765 1.375956461e-24)
(-0.02924678129 0.004751638815 -7.27952187e-24)
(-0.03120740107 0.002736120589 1.015412892e-23)
(-0.0318232903 0.0004529363187 4.510740417e-24)
(-0.03101052969 -0.00188213803 -6.320450333e-24)
(-0.02877859978 -0.004019905769 2.956270583e-24)
(-0.02525995217 -0.005704615653 3.896452663e-23)
(-0.02072393898 -0.00670364787 -1.956570502e-24)
(-0.01558493511 -0.006850950254 3.758678545e-24)
(-0.01038325935 -0.006095333704 -9.760090596e-23)
(-0.005730374709 -0.004545380829 9.658347204e-23)
(-0.0022343768 -0.002507857026 -4.003555883e-25)
(-0.0001827082227 -0.0005035960168 4.104526066e-25)
(8.329752904e-05 0.0006089515361 0)
(-0.0004184459417 0.002933344909 -2.898697073e-25)
(-0.004644340803 0.00879802307 1.687312624e-23)
(-0.0113633984 0.01323109186 -8.397844719e-24)
(-0.01931290181 0.01578090306 -2.087997938e-25)
(-0.02745397311 0.01651859331 2.051239047e-25)
(-0.0350925668 0.01563409883 6.216783603e-27)
(-0.04168427856 0.01335184979 -1.208613601e-24)
(-0.04680403834 0.009914637936 -4.545714209e-25)
(-0.05011732359 0.005600755733 -1.063234274e-23)
(-0.05138043313 0.0007462977428 0)
(-0.05044827804 -0.004236722459 0)
(-0.04731104862 -0.008879611277 2.672535572e-23)
(-0.04213786949 -0.01267266535 2.815019156e-23)
(-0.0352981015 -0.01512661625 -1.648361251e-24)
(-0.02737884017 -0.01585337493 4.854818726e-23)
(-0.01916355655 -0.01466683119 9.437854076e-23)
(-0.01155800805 -0.01168981824 4.000970149e-23)
(-0.005464748622 -0.007449775208 4.229192582e-25)
(-0.001451365907 -0.002937160263 1.02651842e-25)
(-9.072878918e-05 0.0002244544221 0)
(-0.0005019859822 0.006041169329 -4.229673327e-23)
(-0.006397636903 0.0163588742 -1.677508503e-23)
(-0.01552291749 0.02354212637 8.3243151e-24)
(-0.02625905004 0.02742186492 0)
(-0.03725961975 0.02830128825 0)
(-0.0476556742 0.02657021077 0)
(-0.05675654296 0.02261763407 -4.455707717e-26)
(-0.06401018702 0.01682768909 -2.13025711e-24)
(-0.06896560214 0.009619625301 0)
(-0.07126363667 0.001494455505 1.640433401e-24)
(-0.07066642862 -0.006927709067 2.806209053e-25)
(-0.06709249732 -0.01491702752 -2.814066414e-25)
(-0.06066675331 -0.02165128026 0)
(-0.05178168506 -0.02629908961 4.142301837e-23)
(-0.04113088233 -0.02814478485 -4.690313323e-23)
(-0.02970711593 -0.02676070449 -2.774886033e-23)
(-0.01873006455 -0.02220655139 -3.986572629e-23)
(-0.009484932326 -0.01521519153 7.790286222e-25)
(-0.002976191129 -0.007298085207 9.752302536e-23)
(-0.0002317932584 -0.000867544322 0)
(-0.0005311182076 0.01008759407 4.25023355e-23)
(-0.007977303989 0.02593286796 4.80707914e-25)
(-0.0193819967 0.03640196164 -4.697285877e-25)
(-0.03279925432 0.04182510053 0)
(-0.04661288587 0.04286526604 7.789731095e-25)
(-0.05980995039 0.04017475743 -7.681723892e-25)
(-0.07158391128 0.03432740458 3.670131609e-23)
(-0.08127392054 0.02584423584 1.845384316e-23)
(-0.08831009991 0.01526906861 6.222699389e-24)
(-0.09219882071 0.003250830406 -1.642344547e-24)
(-0.09255021976 -0.009395148947 0)
(-0.08912632135 -0.02165548787 4.383795202e-25)
(-0.0819166535 -0.03234357741 1.01481848e-23)
(-0.07123311591 -0.04018658267 -4.358986352e-23)
(-0.0577925864 -0.04399531446 1.940306954e-24)
(-0.04276641187 -0.04292666549 4.244994685e-23)
(-0.02774255268 -0.0368175733 -3.888016603e-25)
(-0.01454468059 -0.02651814321 0)
(-0.004857610513 -0.01408173168 5.431155175e-23)
(-0.0003639459882 -0.002847642283 -2.560144877e-22)
(-0.0005267847764 0.01498808013 9.853703939e-23)
(-0.009371006705 0.03736243166 -4.918743939e-25)
(-0.02286536057 0.05166455376 0)
(-0.03880318796 0.05890027688 0)
(-0.05534879599 0.06021532491 -8.730919265e-23)
(-0.0713816138 0.05658370316 -8.49534352e-23)
(-0.08601176425 0.04877448247 -4.065097096e-23)
(-0.09849059804 0.03742273608 -1.502246901e-23)
(-0.1081311324 0.02315400554 -5.35437304e-24)
(-0.1142803709 0.006715253963 -8.157331279e-24)
(-0.1163422107 -0.01091664752 6.580647282e-24)
(-0.1138352829 -0.02846407897 8.786241527e-24)
(-0.1064962429 -0.04433838685 -1.889423408e-23)
(-0.09442330896 -0.05671764286 4.43300307e-24)
(-0.07823280549 -0.06374724495 0)
(-0.05920274147 -0.06390287114 -1.588538227e-23)
(-0.03932288095 -0.05651301656 -1.876406492e-26)
(-0.02113295854 -0.04234196695 0)
(-0.007315633645 -0.02397526351 -1.516265273e-22)
(-0.0005213024556 -0.005924976201 6.045653376e-22)
(-0.0004987698731 0.02063058954 -9.786524016e-23)
(-0.0105226486 0.05041781912 2.831995693e-22)
(-0.02581302935 0.06907630282 1.52671559e-22)
(-0.04399381361 0.07843927895 3.618661362e-24)
(-0.06306897491 0.08024323587 -7.31430595e-23)
(-0.08185586404 0.07583551037 9.039467254e-23)
(-0.09942136465 0.06618215023 -3.587775932e-24)
(-0.11496043 0.05199473669 -1.726948788e-24)
(-0.127685818 0.03391520176 2.520638271e-24)
(-0.1367796905 0.0127080328 7.36625498e-24)
(-0.1414043404 -0.01056876291 -6.481327918e-24)
(-0.1407612267 -0.0344295271 -9.743463187e-24)
(-0.1342162797 -0.05688793014 -3.258396516e-23)
(-0.1214939731 -0.07548774399 -3.630170863e-23)
(-0.1029251732 -0.08749571957 5.581288631e-25)
(-0.07973174303 -0.09034834729 0)
(-0.05424535631 -0.08240900981 0)
(-0.02985981109 -0.06395230398 -2.898180643e-24)
(-0.0106585648 -0.03797517944 2.962455003e-24)
(-0.0007346833817 -0.01049841164 1.027117346e-22)
(-0.0004477837302 0.02685363451 0)
(-0.01134319547 0.06476276361 2.000779505e-22)
(-0.02800108898 0.08823685694 8.956343994e-23)
(-0.04797338756 0.1000591017 0)
(-0.06917059745 0.1026456156 1.569266324e-22)
(-0.0903989924 0.09776171988 0)
(-0.1107306141 0.08656897543 -1.427204939e-22)
(-0.1293508414 0.06981211183 6.509454061e-24)
(-0.1454146338 0.04807100991 0)
(-0.1579706816 0.02202262065 0)
(-0.1659489097 -0.007313727616 -1.372009135e-24)
(-0.1682047559 -0.03835368801 -9.292571782e-25)
(-0.163648029 -0.06879367434 1.4887804e-22)
(-0.1514683392 -0.09552883146 -4.700334744e-23)
(-0.1314687134 -0.1147725447 -2.551897116e-24)
(-0.1045243359 -0.1225148726 1.526419032e-24)
(-0.07306879379 -0.11550382 -1.550497204e-24)
(-0.0413360343 -0.09279575119 0)
(-0.01524688011 -0.05738782447 3.198764123e-24)
(-0.001043804529 -0.01714210566 -1.011552507e-21)
(-0.000374554492 0.03344113185 0)
(-0.01174561218 0.07993752554 -1.12842009e-22)
(-0.02919555172 0.1085709384 -6.18900149e-22)
(-0.05029743979 0.1231495944 -3.753618228e-22)
(-0.07293456074 0.1268387203 0)
(-0.09595309267 0.1218637117 4.116707663e-22)
(-0.1184842013 0.1095865773 1.259878923e-22)
(-0.1397664023 0.09075056307 -5.576272842e-24)
(-0.1589704572 0.06579986981 5.54867332e-24)
(-0.175092536 0.03521283306 0)
(-0.1869020083 -0.0001754210215 2.908904713e-23)
(-0.1929642172 -0.0388605605 4.688925949e-24)
(-0.1917302416 -0.07838876442 -1.074872868e-22)
(-0.1817404046 -0.1151266205 7.986447755e-23)
(-0.1620153552 -0.1441945283 -2.415356003e-22)
(-0.1326717122 -0.1597893313 0)
(-0.09575337226 -0.1562520594 0)
(-0.05600082017 -0.1302519216 0)
(-0.02147226973 -0.08378348475 0)
(-0.0014997888 -0.02664698821 5.564992514e-22)
(-0.0002877176926 0.04013692726 0)
(-0.01169139315 0.09537982551 -3.491769155e-22)
(-0.02923778528 0.129333001 8.929194197e-22)
(-0.05059717252 0.1468493766 3.615551116e-22)
(-0.0736825408 0.1518974773 0)
(-0.09742770765 0.1472084533 -3.859991617e-22)
(-0.121078641 0.1343666418 -3.172027958e-23)
(-0.1440008162 0.1141044599 3.330503971e-22)
(-0.1654805659 0.08668420022 1.768004268e-22)
(-0.1845900503 0.05229441143 -4.056663533e-23)
(-0.200097503 0.0114383931 1.655955118e-23)
(-0.2104273968 -0.03467675199 -8.256060062e-24)
(-0.2136865856 -0.08371428492 3.368545433e-22)
(-0.2077882933 -0.1318133635 0)
(-0.1907924541 -0.1732061081 2.416522897e-22)
(-0.1616055217 -0.2001874353 5.761807623e-24)
(-0.1211436723 -0.2039443012 -5.847733208e-24)
(-0.07383488182 -0.1771561138 1.544451248e-22)
(-0.02971114464 -0.1188281989 -5.423796502e-24)
(-0.002178871352 -0.04004226082 0)
(-0.0002122784663 0.04669203359 0)
(-0.01125050078 0.1104917758 0)
(-0.02815570637 0.1496583668 -5.020669053e-22)
(-0.04874211443 0.1700679887 -1.880159611e-23)
(-0.07099560924 0.1765452624 2.037204232e-23)
(-0.09398687255 0.1723828932 -2.013150601e-23)
(-0.1171340562 0.1594330063 -2.315231592e-23)
(-0.1400076993 0.1384449386 -3.027438726e-22)
(-0.1621225449 0.1095000799 6.696045598e-23)
(-0.1827859494 0.07245507497 4.509265133e-23)
(-0.2009740225 0.02737025517 -4.573619773e-23)
(-0.2152175056 -0.02505033468 0)
(-0.2235459341 -0.08293370075 -7.825950056e-23)
(-0.2234513238 -0.1426652278 0)
(-0.2120540465 -0.1981136379 -3.736237059e-22)
(-0.1867280851 -0.2400045724 5.239227263e-22)
(-0.1464287866 -0.2560056281 0)
(-0.09393378429 -0.2330584674 -1.490114721e-22)
(-0.04021374075 -0.1639182259 1.933555282e-22)
(-0.003200384779 -0.05859526128 -3.407558997e-22)
(-0.0002022948954 0.05295256157 0)
(-0.01067596762 0.1247607299 9.179312752e-22)
(-0.02629051685 0.1686664936 -2.439696198e-23)
(-0.04501900168 0.1915625395 9.189507343e-22)
(-0.06495517031 0.1992124159 -2.510912645e-23)
(-0.08537659563 0.1955417438 2.837205531e-23)
(-0.105942207 0.1827361243 -2.811306549e-23)
(-0.1265057784 0.1616246785 -1.65984614e-23)
(-0.1469150391 0.1321621266 -5.256858477e-22)
(-0.1668630728 0.09390098848 -8.900795882e-24)
(-0.1857488306 0.04642680736 9.653956628e-24)
(-0.2024969098 -0.01020298761 3.311266811e-22)
(-0.2154326784 -0.07495206649 -5.817097105e-22)
(-0.222034586 -0.1449760705 0)
(-0.2188115404 -0.214613779 8.880946624e-22)
(-0.2016279803 -0.2739341613 -4.93550452e-22)
(-0.1668608289 -0.3075120051 -1.570523521e-23)
(-0.1140162698 -0.2953172229 0)
(-0.05288023219 -0.2195326442 -1.886256476e-22)
(-0.004748507505 -0.08375420167 3.356686011e-22)
(-0.000365095334 0.0590025555 1.550411323e-23)
(-0.01050180816 0.1379365093 -8.760802672e-22)
(-0.02442637365 0.1856096837 -1.1566573e-21)
(-0.04028565514 0.2100604488 -8.625394158e-22)
(-0.05633084838 0.2181598258 0)
(-0.07217663087 0.2145547872 3.512054279e-23)
(-0.08782438356 0.2018309786 -7.291121154e-23)
(-0.1034922848 0.1809710317 5.864766174e-23)
(-0.1194378818 0.1518891833 3.019577635e-22)
(-0.1358354836 0.1139220283 -1.127592517e-23)
(-0.1526523378 0.06623597786 0)
(-0.1694962883 0.008210343227 -3.601931612e-22)
(-0.1853181126 -0.0601183034 7.512211013e-22)
(-0.1980823852 -0.1372270739 8.828258386e-22)
(-0.2043849916 -0.2188736764 -5.293399655e-22)
(-0.1991188729 -0.295914347 5.160170455e-22)
(-0.176071754 -0.3513469809 1.076841906e-23)
(-0.1300919179 -0.3583559196 -1.094134615e-23)
(-0.06688651338 -0.2842797502 -8.247782987e-23)
(-0.007082809947 -0.1169757919 0)
(-0.0009105566223 0.06538387325 -1.910834504e-23)
(-0.01168427073 0.1502379339 -1.32656726e-21)
(-0.0239068698 0.2000042665 1.093859424e-21)
(-0.03604106805 0.2243524814 6.732864698e-22)
(-0.04660936934 0.2315918511 6.012656716e-22)
(-0.05581406201 0.2271823676 6.641542122e-22)
(-0.06416225478 0.2141355883 -4.456714914e-23)
(-0.07233041281 0.1936252914 -3.459950948e-22)
(-0.08102838358 0.1655964371 2.151301238e-22)
(-0.09093310378 0.129280332 0)
(-0.1026170323 0.08355327604 0)
(-0.1164238906 0.0272316647 2.654577218e-22)
(-0.1322180467 -0.04058304157 8.197417009e-23)
(-0.1489794126 -0.1199730074 -2.819834002e-22)
(-0.1641750303 -0.208888479 -5.409543316e-23)
(-0.1728241128 -0.3006554733 1.302537132e-22)
(-0.1670554227 -0.379285974 -3.398829399e-22)
(-0.1365412605 -0.4135966304 -1.607162717e-23)
(-0.08018507576 -0.3537894705 8.236511292e-23)
(-0.01050747491 -0.1593921698 -6.033915832e-22)
(-0.002261478293 0.07347743954 0)
(-0.01581342614 0.1626188364 2.145275295e-21)
(-0.02667244332 0.2117409315 0)
(-0.03425791541 0.2333374892 -1.351444425e-21)
(-0.0376398583 0.2377205007 6.187050981e-23)
(-0.03805225529 0.2312074299 -6.19083416e-22)
(-0.03674527447 0.2171550669 -4.754714425e-22)
(-0.03495812653 0.1968747382 8.298211484e-22)
(-0.03385931259 0.1703311756 -1.884933864e-22)
(-0.03457074725 0.136733086 0)
(-0.03818705838 0.09481867646 0)
(-0.04571901088 0.04307198016 2.412170409e-23)
(-0.05797352807 -0.02010522582 -6.005590194e-22)
(-0.0752063062 -0.09617366234 -4.308453177e-22)
(-0.09650500116 -0.1855238475 4.637255761e-22)
(-0.1183901044 -0.2853256446 -6.4868527e-22)
(-0.1333039474 -0.3838061005 9.110140322e-23)
(-0.1265542118 -0.4504014607 2.951194626e-23)
(-0.08899814626 -0.4198197403 5.660819018e-22)
(-0.01526955393 -0.2111531697 6.022545264e-22)
(-0.005181741532 0.08597472695 0)
(-0.0252656176 0.1766075364 1.465825101e-22)
(-0.03485743443 0.2205607608 -4.916139514e-23)
(-0.03643758569 0.2354428145 7.641128978e-22)
(-0.03023528961 0.234297067 -7.003570641e-22)
(-0.01922711683 0.2241225918 4.745178044e-23)
(-0.005683688134 0.208325094 -1.018567903e-22)
(0.008496348633 0.188109365 -3.388738527e-22)
(0.02172322289 0.1633894276 2.062254699e-22)
(0.03255309097 0.1333343088 0)
(0.03951269439 0.0966600039 0)
(0.04110263117 0.05176540175 -2.902001633e-22)
(0.03572223698 -0.003228526524 0)
(0.0219249159 -0.07055725547 -5.511709667e-22)
(-0.001315130916 -0.1525497259 -1.488264382e-23)
(-0.03314702193 -0.250573845 2.559571569e-23)
(-0.06912616919 -0.3599137702 2.202510156e-22)
(-0.09230040731 -0.4575225845 4.788875495e-24)
(-0.08718990535 -0.4697906812 -5.789843614e-22)
(-0.02103221326 -0.269882698 0)
(-0.01111676149 0.1085969823 0)
(-0.04249728561 0.1947049793 -8.846866524e-22)
(-0.0479757498 0.2257984393 -5.410471659e-22)
(-0.03922947246 0.2281850049 4.543372304e-22)
(-0.01882548825 0.2182022518 -1.710933701e-24)
(0.007606086063 0.2027944429 -4.560303856e-23)
(0.03661398825 0.18474137 5.695312167e-22)
(0.06575954131 0.1646998679 -2.766187106e-23)
(0.09319950336 0.1423107652 -2.069199494e-22)
(0.1173191464 0.1166345413 3.141503708e-23)
(0.1364801505 0.08642573838 -3.425259428e-23)
(0.1489063516 0.05019568241 -3.690088252e-23)
(0.1524736167 0.006180063409 3.205303674e-22)
(0.1448897187 -0.04794124259 6.119107147e-22)
(0.1234754541 -0.1152881723 -5.100954004e-22)
(0.08630193457 -0.2004061357 -1.61638025e-22)
(0.03196168902 -0.3067702844 1.530773485e-22)
(-0.0236421076 -0.4239732798 7.29333765e-23)
(-0.06493261959 -0.4871494112 1.913205429e-21)
(-0.02510088608 -0.3291451881 2.954894167e-21)
(-0.02004650173 0.1460755156 -4.389842998e-23)
(-0.06416786837 0.2112938489 4.417013425e-23)
(-0.05071451384 0.2177208051 1.000117275e-21)
(-0.01936383334 0.2014524727 -8.244222596e-24)
(0.02411043941 0.1808891504 0)
(0.07149656537 0.1606754802 4.363091574e-23)
(0.1190177652 0.1416353054 -2.27342088e-22)
(0.1644191815 0.1233092755 -9.026086797e-23)
(0.2061657192 0.1048091579 3.679905833e-23)
(0.2429061783 0.08507493755 -1.70126327e-23)
(0.2731664543 0.06297005625 3.429311959e-23)
(0.2952052069 0.03727488185 -6.59176568e-23)
(0.3066549826 0.006548438078 -9.302582446e-23)
(0.3049383217 -0.03086483314 1.517020039e-22)
(0.2863647426 -0.07785224129 0)
(0.2470338027 -0.139922673 1.505996483e-22)
(0.1810735994 -0.2266266349 2.559871361e-22)
(0.0960305891 -0.3443853856 0)
(-0.00670473052 -0.4552166402 -3.675478361e-21)
(-0.01922524714 -0.3777497 -2.892525928e-21)
(-0.02591865799 0.2276857963 -9.514019866e-22)
(-0.03998189078 0.2238236633 -1.388925103e-22)
(0.0365598487 0.1810567655 -2.335413638e-22)
(0.1090426507 0.1451003696 -1.193613155e-22)
(0.1817033929 0.1172365701 -4.295815906e-23)
(0.2489847778 0.09627063005 9.782472918e-23)
(0.3100019163 0.08001789721 -1.408394848e-22)
(0.3645837983 0.06656333482 1.296920607e-22)
(0.4125853307 0.05449002253 -8.61820164e-23)
(0.4535851132 0.04271026183 1.132091226e-25)
(0.4867504348 0.03032688381 1.52749707e-23)
(0.5107120884 0.0165346594 7.996106085e-23)
(0.5236324921 0.0005425067171 -1.810977976e-22)
(0.523159042 -0.01862790884 -1.617120983e-22)
(0.5052170949 -0.04286009325 -4.263406938e-23)
(0.465860783 -0.0763293676 0)
(0.3952618826 -0.12860802 -1.846083812e-22)
(0.2916012538 -0.2208465481 8.148344754e-22)
(0.119741965 -0.3525014478 1.631536549e-21)
(0.02670457564 -0.3775492679 2.17262259e-21)
(0.2142903371 0.1347455979 9.864786621e-22)
(0.277633892 0.09870615989 0)
(0.431662321 0.05810467592 -2.594279668e-22)
(0.5304762146 0.03846247125 -1.741689077e-22)
(0.6016942229 0.02623348339 0)
(0.6571130591 0.01831833854 -6.008770771e-23)
(0.7015102933 0.01313524162 6.377102633e-23)
(0.7375900148 0.009541708306 -1.799758996e-23)
(0.7669209609 0.006804521607 2.88533422e-23)
(0.7901948319 0.004465276458 2.314523463e-23)
(0.8074412423 0.002222228174 0)
(0.8182505712 -0.000148935547 -2.87261319e-23)
(0.8216417463 -0.002722652484 0)
(0.8162346547 -0.005711768456 2.738157403e-23)
(0.7991312941 -0.00961085389 1.422129096e-23)
(0.767998439 -0.01500241015 -5.798814939e-23)
(0.7106560793 -0.0250254357 -2.53542531e-22)
(0.6235187196 -0.04204313095 -6.917774115e-22)
(0.4230090672 -0.09182996713 0)
(0.270567383 -0.1524023136 -2.119451268e-21)
)
;

boundaryField
{
    movingWall
    {
        type            fixedValue;
        value           uniform (1 0 0);
    }
    fixedWalls
    {
        type            fixedValue;
        value           uniform (0 0 0);
    }
    frontAndBack
    {
        type            empty;
    }
}


// ************************************************************************* //
