/*--------------------------------*- C++ -*----------------------------------*\
  =========                 |
  \\      /  F ield         | OpenFOAM: The Open Source CFD Toolbox
   \\    /   O peration     | Website:  https://openfoam.org
    \\  /    A nd           | Version:  13
     \\/     M anipulation  |
\*---------------------------------------------------------------------------*/
FoamFile
{
    format      ascii;
    class       volVectorField;
    location    "19";
    object      U_0;
}
// * * * * * * * * * * * * * * * * * * * * * * * * * * * * * * * * * * * * * //

dimensions      [0 1 -1 0 0 0 0];

internalField   nonuniform List<vector> 
400
(
(0.0001451196301 -0.000147998136 0)
(-0.0001824381001 5.682078793e-05 0)
(-0.001475431785 0.0002739604027 0)
(-0.003531176331 0.0004129804688 0)
(-0.006036639079 0.0004848483697 0)
(-0.008716437088 0.0005082518992 0)
(-0.01134349141 0.0004927477493 0)
(-0.01371062901 0.0004388500375 0)
(-0.01561002667 0.0003422251008 0)
(-0.01683174206 0.0001995304009 0)
(-0.01718405539 1.44140021e-05 0)
(-0.01653277928 -0.0001978220284 0)
(-0.01485047198 -0.0004080911007 0)
(-0.01226091538 -0.0005764257294 0)
(-0.009060481386 -0.0006602574896 0)
(-0.005698449198 -0.0006272034749 0)
(-0.002706853798 -0.0004681196976 0)
(-0.0005806490351 -0.0002059536172 0)
(0.0003871170825 8.92305385e-05 0)
(0.0002625553793 0.0002566671779 0)
(-6.817547401e-05 0.0001797374842 0)
(-0.001903991973 0.001794720892 0)
(-0.0058432744 0.003435519488 0)
(-0.01137987239 0.004560707161 0)
(-0.01784187935 0.005141793387 0)
(-0.02462160352 0.005249000515 0)
(-0.03117648963 0.004934689638 0)
(-0.03699396043 0.004213812621 0)
(-0.04157033646 0.003084827125 0)
(-0.04442216545 0.00156628775 0)
(-0.04513559575 -0.0002657553601 0)
(-0.04344673638 -0.002251434707 0)
(-0.03933571934 -0.004142327899 0)
(-0.03310716204 -0.005627817259 0)
(-0.02542393417 -0.006395887205 0)
(-0.0172626271 -0.006221338112 0)
(-0.009769435069 -0.005060425589 0)
(-0.004018958398 -0.003126094172 0)
(-0.000702092601 -0.0009510329646 0)
(0.0001659134478 0.0004335158448 0)
(-0.0003393270059 0.001611124445 0)
(-0.004010888921 0.005876689327 0)
(-0.01062390543 0.009650106224 0)
(-0.01931860532 0.01218947141 0)
(-0.02913716228 0.01345344894 0)
(-0.03925920925 0.01356100276 0)
(-0.04893722965 0.01260641752 0)
(-0.05745391791 0.01062630742 0)
(-0.06410902685 0.007642303735 0)
(-0.0682435255 0.003734978049 0)
(-0.06930455754 -0.0008822871657 0)
(-0.06694336556 -0.005813868903 0)
(-0.06112780201 -0.01047811203 0)
(-0.05224217395 -0.01416565278 0)
(-0.04113906794 -0.01616901326 0)
(-0.02910242557 -0.01597285995 0)
(-0.01768521681 -0.01346566309 0)
(-0.008414168517 -0.009110725403 0)
(-0.002416347462 -0.004036414425 0)
(-1.258803349e-05 -0.0001961820755 0)
(-0.0005826872134 0.004161254687 0)
(-0.006023737483 0.01229165854 0)
(-0.01519401986 0.01877997642 0)
(-0.02681864883 0.02299106521 0)
(-0.03965188977 0.02497943275 0)
(-0.0527131078 0.02494776193 0)
(-0.0651253605 0.02304171628 0)
(-0.07604507522 0.01932436304 0)
(-0.08464478714 0.01384975367 0)
(-0.09013872093 0.006778000468 0)
(-0.09185030796 -0.001512257609 0)
(-0.08931558805 -0.01034833485 0)
(-0.08240940768 -0.01875418529 0)
(-0.07147366641 -0.02553375067 0)
(-0.05741415374 -0.02946696104 0)
(-0.04171443999 -0.02961589266 0)
(-0.0263033556 -0.02569057649 0)
(-0.01323665111 -0.01836366025 0)
(-0.004250866277 -0.009403669184 0)
(-0.0001665149482 -0.001723557472 0)
(-0.0007925185246 0.007727377304 0)
(-0.007838656707 0.02085396257 0)
(-0.0193605614 0.03056595452 0)
(-0.03367458663 0.03662492275 0)
(-0.04926070804 0.03932899008 0)
(-0.0650147066 0.03902994232 0)
(-0.07998537265 0.03594639662 0)
(-0.0932623709 0.03016909175 0)
(-0.1039400906 0.02177631697 0)
(-0.1111301847 0.01099414521 0)
(-0.1140184466 -0.001649086047 0)
(-0.1119647202 -0.01521229516 0)
(-0.1046426974 -0.02830950461 0)
(-0.09221044883 -0.03919364507 0)
(-0.07548432838 -0.04599858167 0)
(-0.05605438753 -0.04716387616 0)
(-0.03624056467 -0.04200141928 0)
(-0.01878571257 -0.03124300025 0)
(-0.006295704025 -0.01729789299 0)
(-0.0003088094883 -0.004187121518 0)
(-0.0009695999328 0.0121869053 0)
(-0.009419818836 0.03133753443 0)
(-0.02302347013 0.044751042 0)
(-0.03973852081 0.0528295021 0)
(-0.05780694917 0.05626514699 0)
(-0.07604013789 0.05563876086 0)
(-0.09346105704 0.0512720666 0)
(-0.1091437456 0.04328102464 0)
(-0.1221464807 0.03174219519 0)
(-0.1314978741 0.01690243854 0)
(-0.1362299696 -0.0006185243437 0)
(-0.1354643313 -0.01966786096 0)
(-0.128560678 -0.03847652677 0)
(-0.1153356018 -0.05470314696 0)
(-0.09633819472 -0.06568025535 0)
(-0.07311968729 -0.06894097839 0)
(-0.04836094383 -0.06303614576 0)
(-0.02565637231 -0.04845894646 0)
(-0.008831856779 -0.02821480564 0)
(-0.0004793039428 -0.007725921778 0)
(-0.001110894516 0.01740870344 0)
(-0.01073000006 0.04347480014 0)
(-0.02607900767 0.06102487459 0)
(-0.04482949409 0.07130229732 0)
(-0.06503445841 0.07553295555 0)
(-0.08546394055 0.07460997875 0)
(-0.1051626249 0.06899288127 0)
(-0.1232400147 0.05881797425 0)
(-0.1387655996 0.04412073479 0)
(-0.1507180079 0.02509775712 0)
(-0.1579819288 0.002363630371 0)
(-0.1594062823 -0.02282257099 0)
(-0.1539468407 -0.04838972215 0)
(-0.1409214063 -0.07140568567 0)
(-0.1203903436 -0.08825906817 0)
(-0.0936215282 -0.09523065374 0)
(-0.06349427 -0.08957938885 0)
(-0.03453535978 -0.0710267955 0)
(-0.01221891996 -0.04298190297 0)
(-0.0007261867069 -0.01265461957 0)
(-0.001210878137 0.02324128871 0)
(-0.01172226694 0.05694130422 0)
(-0.02840341503 0.07899381802 0)
(-0.04871721747 0.09163960852 0)
(-0.07057825688 0.09676329193 0)
(-0.09275786601 0.09565371593 0)
(-0.1143696541 0.08894767558 0)
(-0.1346135877 0.07679948868 0)
(-0.152630936 0.05916006291 0)
(-0.1674105214 0.03609063442 0)
(-0.1777394155 0.008076451715 0)
(-0.1822160939 -0.0236687644 0)
(-0.1793604777 -0.05692140624 0)
(-0.1678703612 -0.08824883218 0)
(-0.147075286 -0.1130312933 0)
(-0.1176024917 -0.1259579768 0)
(-0.08215782395 -0.1223104795 0)
(-0.04606435938 -0.1001589283 0)
(-0.0168611867 -0.06276888156 0)
(-0.001109093111 -0.0194900612 0)
(-0.00126555038 0.02950842365 0)
(-0.01235675189 0.07134957376 0)
(-0.02987984696 0.09816448811 0)
(-0.05115901134 0.1132971012 0)
(-0.07401329134 0.1194023862 0)
(-0.09725299309 0.1182498559 0)
(-0.1201059486 0.1107017401 0)
(-0.1419215224 0.09693878076 0)
(-0.1619885087 0.07679320364 0)
(-0.1793988972 0.05010965863 0)
(-0.1929473586 0.01711084481 0)
(-0.2010831861 -0.02122007233 0)
(-0.2019536449 -0.0627303193 0)
(-0.193603899 -0.1037016768 0)
(-0.1744301921 -0.1386036504 0)
(-0.143990117 -0.1603240622 0)
(-0.1042020401 -0.1614243055 0)
(-0.0606710916 -0.1370261354 0)
(-0.02318832041 -0.08903604829 0)
(-0.001707475186 -0.0289728992 0)
(-0.00127900724 0.03602018076 0)
(-0.01263446394 0.08626368191 0)
(-0.03045710932 0.1179448368 0)
(-0.05198086876 0.1355667447 0)
(-0.07495868144 0.1426594254 0)
(-0.09827204028 0.1415640416 0)
(-0.1213061573 0.1334297022 0)
(-0.1436203427 0.1184912177 0)
(-0.1647370935 0.09645211342 0)
(-0.1839716003 0.06688463567 0)
(-0.2002834773 0.02963363791 0)
(-0.2121586683 -0.01474067389 0)
(-0.2175550932 -0.06443914446 0)
(-0.2139766156 -0.1158120897 0)
(-0.1988139455 -0.1627538524 0)
(-0.1701633428 -0.1964328652 0)
(-0.128363154 -0.2061082897 0)
(-0.07829742421 -0.1823222903 0)
(-0.03160904634 -0.123381559 0)
(-0.002631667063 -0.04208866591 0)
(-0.00127319627 0.04260768224 0)
(-0.01264715364 0.1012468098 0)
(-0.03023437591 0.1376737502 0)
(-0.05119257815 0.15757981 0)
(-0.07322530082 0.1654841916 0)
(-0.09532030006 0.164402547 0)
(-0.1170665194 0.1558470685 0)
(-0.1382934905 0.1401572573 0)
(-0.1588436089 0.116932322 0)
(-0.1783833713 0.085461128 0)
(-0.1962225062 0.04514338769 0)
(-0.2111329579 -0.004043920894 0)
(-0.221180604 -0.06095352521 0)
(-0.2236163762 -0.1224689148 0)
(-0.2149805906 -0.1825116138 0)
(-0.1917187396 -0.2310567819 0)
(-0.1518106679 -0.2539658919 0)
(-0.09799033376 -0.2355965977 0)
(-0.04238793584 -0.167208957 0)
(-0.004033909093 -0.06007395865 0)
(-0.001302339309 0.0491920365 0)
(-0.01264485863 0.1159521252 0)
(-0.02956509179 0.1566852977 0)
(-0.04911818463 0.1783411241 0)
(-0.06897577533 0.1865842121 0)
(-0.08829264042 0.1852241959 0)
(-0.1069257766 0.1762204748 0)
(-0.1250366568 0.1600836536 0)
(-0.1428609232 0.1363658594 0)
(-0.1605237792 0.1041147895 0)
(-0.177854324 0.06228866373 0)
(-0.1941691222 0.01020050427 0)
(-0.2080023833 -0.05189201323 0)
(-0.2168028162 -0.1219000396 0)
(-0.2167036404 -0.1945820161 0)
(-0.2026883478 -0.2597551259 0)
(-0.1699109825 -0.3006141434 0)
(-0.1174198397 -0.2944225282 0)
(-0.05538739624 -0.2211098039 0)
(-0.006115165622 -0.08436968881 0)
(-0.001476209871 0.05590345047 0)
(-0.01312686639 0.1302624716 0)
(-0.02916966447 0.1744001527 0)
(-0.04650783594 0.1967831519 0)
(-0.06283777642 0.2044737104 0)
(-0.07761068563 0.2022093727 0)
(-0.09105911265 0.1924671597 0)
(-0.1037463347 0.1759874663 0)
(-0.1163513928 0.1523460469 0)
(-0.1295165469 0.120434045 0)
(-0.1436905305 0.07884931278 0)
(-0.1589216357 0.02627608212 0)
(-0.1745482282 -0.0380147671 0)
(-0.1887471921 -0.1133412348 0)
(-0.1979495322 -0.1961464305 0)
(-0.1963619261 -0.2775361704 0)
(-0.1764745976 -0.3397928495 0)
(-0.1325315368 -0.3536816925 0)
(-0.06963863664 -0.283899595 0)
(-0.009116681336 -0.1164408212 0)
(-0.002001769691 0.06327480596 0)
(-0.01496681007 0.1444742515 0)
(-0.03023311521 0.1904113872 0)
(-0.04456199685 0.2117991467 0)
(-0.05585825265 0.2175162455 0)
(-0.06413506087 0.2133515579 0)
(-0.07018093196 0.2023118848 0)
(-0.07504640981 0.185377058 0)
(-0.07987589677 0.1621938846 0)
(-0.08582022155 0.1315916917 0)
(-0.09394469246 0.09194526595 0)
(-0.1050827201 0.04146493 0)
(-0.1195701974 -0.02146109644 0)
(-0.1367651361 -0.09766006797 0)
(-0.1542257204 -0.1858787252 0)
(-0.1665422543 -0.2800624451 0)
(-0.1645603523 -0.364254612 0)
(-0.1375784986 -0.4054364991 0)
(-0.08277578009 -0.3514450944 0)
(-0.01324067262 -0.157310385 0)
(-0.003241622435 0.07253114173 0)
(-0.01955953683 0.1594905789 0)
(-0.03439052423 0.2044794535 0)
(-0.04467272684 0.2221626228 0)
(-0.04902371532 0.2238746666 0)
(-0.04851690323 0.2164858083 0)
(-0.04476863902 0.2034095107 0)
(-0.03941352977 0.1857718259 0)
(-0.03405169476 0.1632714573 0)
(-0.0302690235 0.1347382861 0)
(-0.02964166174 0.09847097517 0)
(-0.03368818926 0.05244071247 0)
(-0.04371999422 -0.005542273483 0)
(-0.06047880527 -0.07754582384 0)
(-0.08332870064 -0.1647210537 0)
(-0.1086349019 -0.2650105929 0)
(-0.1274935165 -0.3673137133 0)
(-0.1255289277 -0.439757406 0)
(-0.09043941646 -0.4158159032 0)
(-0.01832762223 -0.2067320984 0)
(-0.005698601021 0.08607375315 0)
(-0.02880161724 0.1769006082 0)
(-0.04316482629 0.2161572159 0)
(-0.04719039985 0.226058068 0)
(-0.04149580737 0.2211387665 0)
(-0.02907384905 0.209059944 0)
(-0.01269778124 0.1932596938 0)
(0.005354415426 0.1747566324 0)
(0.02309630465 0.1531842087 0)
(0.03864804044 0.1273738747 0)
(0.050108476 0.09566180234 0)
(0.0554903056 0.05602181924 0)
(0.05272981683 0.006096148075 0)
(0.03984201888 -0.05683644864 0)
(0.01544349015 -0.1357545306 0)
(-0.01971704005 -0.232795605 0)
(-0.05941074363 -0.3443333214 0)
(-0.08846053057 -0.4462251727 0)
(-0.08577976903 -0.4654988857 0)
(-0.02317419854 -0.262674844 0)
(-0.009916578757 0.1090215165 0)
(-0.04414975352 0.1986562164 0)
(-0.05509702937 0.2233081914 0)
(-0.04675552179 0.2196026682 0)
(-0.0249906913 0.2052257613 0)
(0.004147114421 0.1874309602 0)
(0.03665533856 0.1688332079 0)
(0.06981235814 0.1498785267 0)
(0.101508976 0.1299127084 0)
(0.12984868 0.107716872 0)
(0.1528867475 0.08174089745 0)
(0.1684677069 0.05016037647 0)
(0.1741198339 0.0108311817 0)
(0.167029444 -0.03893209822 0)
(0.1441761818 -0.1028175587 0)
(0.1031798762 -0.1860166223 0)
(0.04544463082 -0.2932633727 0)
(-0.01741933816 -0.4150013482 0)
(-0.05930024874 -0.4859242158 0)
(-0.02493866077 -0.3213481054 0)
(-0.01766536975 0.1523155162 0)
(-0.06160389511 0.2238242075 0)
(-0.05357218746 0.216875038 0)
(-0.01711042066 0.1931901224 0)
(0.03099057615 0.1686637805 0)
(0.08248162999 0.1464477921 0)
(0.1335766714 0.1269166844 0)
(0.182142708 0.1094124196 0)
(0.2266848719 0.09279568641 0)
(0.265841479 0.07578412871 0)
(0.29806422 0.05703792545 0)
(0.3214294825 0.03509841572 0)
(0.3334769733 0.008337550903 0)
(0.331110566 -0.02531638321 0)
(0.3104308908 -0.0690344213 0)
(0.2667236323 -0.1287062614 0)
(0.1956690085 -0.2151599466 0)
(0.09971133697 -0.3373435864 0)
(0.002372309902 -0.4559157896 0)
(-0.01646961481 -0.3680043963 0)
(-0.02398893978 0.2088023148 0)
(-0.03750503072 0.2309272974 0)
(0.03749390109 0.176624978 0)
(0.1246481627 0.1363510787 0)
(0.2043882121 0.1080841442 0)
(0.2753299202 0.08699650391 0)
(0.3382995472 0.07090670593 0)
(0.3937697917 0.05818173225 0)
(0.4419468005 0.04737856972 0)
(0.4826172483 0.03732542589 0)
(0.515251607 0.02700322016 0)
(0.5386090874 0.01548069054 0)
(0.5506871097 0.00181322548 0)
(0.5487059997 -0.01512061954 0)
(0.5287101858 -0.0372078168 0)
(0.4850645789 -0.06836980544 0)
(0.4093000991 -0.1186862425 0)
(0.2895464904 -0.2092354988 0)
(0.1323509561 -0.3382934058 0)
(0.0381373086 -0.3400816995 0)
(0.2420190966 0.1092952472 0)
(0.3139493299 0.09735006101 0)
(0.4450379555 0.0570628317 0)
(0.5502366846 0.03507572355 0)
(0.6242230113 0.02360976201 0)
(0.6790759156 0.01652756953 0)
(0.7221872052 0.01179624267 0)
(0.7568295961 0.008553602993 0)
(0.7846681897 0.006196839233 0)
(0.8065574366 0.00428092041 0)
(0.822689349 0.002476731387 0)
(0.8326580941 0.0005544717502 0)
(0.8355369094 -0.001672477136 0)
(0.8298246036 -0.004354772554 0)
(0.8131057739 -0.007819173461 0)
(0.7813538008 -0.01276317094 0)
(0.7261090918 -0.02124954025 0)
(0.6302189544 -0.03821810304 0)
(0.4593637444 -0.08590421555 0)
(0.3048585659 -0.125774572 0)
)
;

boundaryField
{
    movingWall
    {
        type            calculated;
        value           uniform (1 0 0);
    }
    fixedWalls
    {
        type            calculated;
        value           uniform (0 0 0);
    }
    frontAndBack
    {
        type            empty;
    }
}


// ************************************************************************* //
