/*--------------------------------*- C++ -*----------------------------------*\
  =========                 |
  \\      /  F ield         | OpenFOAM: The Open Source CFD Toolbox
   \\    /   O peration     | Website:  https://openfoam.org
    \\  /    A nd           | Version:  13
     \\/     M anipulation  |
\*---------------------------------------------------------------------------*/
FoamFile
{
    format      ascii;
    class       vectorField;
    location    "10.7";
    object      U_all;
}
// * * * * * * * * * * * * * * * * * * * * * * * * * * * * * * * * * * * * * //


400
(
(8.378815e-06 -3.323898611e-05 0)
(-0.0006601125611 0.0004087677354 -1.501874636e-23)
(-0.002149547132 0.0009043940775 0)
(-0.003973570844 0.001287453444 0)
(-0.005857472183 0.001504406801 6.326848509e-25)
(-0.007612238623 0.001538309111 4.099449065e-24)
(-0.009105762439 0.001395395352 -5.501513512e-24)
(-0.01023958961 0.001098432813 9.55334449e-24)
(-0.01093538568 0.0006839875685 -2.274398719e-25)
(-0.01113383218 0.0002009325282 -4.279411839e-24)
(-0.01079956188 -0.0002932726874 6.136503828e-24)
(-0.009932382371 -0.000733947347 -6.218790898e-23)
(-0.008580024219 -0.001059053534 -6.888791629e-23)
(-0.006846302667 -0.001217844924 -8.162254111e-23)
(-0.004895145602 -0.001182693175 4.8414928e-24)
(-0.002944406397 -0.0009599380631 -4.450060865e-24)
(-0.001242587986 -0.0005977284422 -2.231905783e-22)
(-5.903909088e-05 -0.0001825674789 0)
(0.0004897160935 0.0001568110834 2.662414097e-25)
(0.000215511154 0.0002959616483 -1.774476238e-23)
(-0.0002581240197 0.0008199567199 1.341683013e-25)
(-0.002646808829 0.00331861806 1.511365721e-23)
(-0.006755307464 0.005485314702 1.48561123e-25)
(-0.01168504655 0.006855054216 -7.869245936e-25)
(-0.0167512165 0.007389216348 1.05924734e-24)
(-0.0214875804 0.007139516021 1.142684526e-23)
(-0.02554196111 0.006195258085 3.080664819e-24)
(-0.02864592607 0.004669447739 -9.257593054e-24)
(-0.03059059373 0.00270265019 1.126625525e-23)
(-0.03122526789 0.0004698881393 4.837908799e-24)
(-0.03046449561 -0.001817969965 -6.682472952e-24)
(-0.02831303494 -0.003919756939 2.768926046e-24)
(-0.02489509138 -0.005584609365 4.053663263e-23)
(-0.02046924012 -0.0065829588 -2.09397645e-24)
(-0.01543716492 -0.006748880628 4.055685386e-24)
(-0.01032615203 -0.006027712871 -1.092394548e-22)
(-0.005736611389 -0.004520787396 1.087868868e-22)
(-0.00226907829 -0.002523545277 -6.24526245e-25)
(-0.0002139672086 -0.0005444777758 6.402791327e-25)
(7.867479125e-05 0.000576767262 0)
(-0.0004075683915 0.002876846422 -2.803560151e-25)
(-0.00453368503 0.008607238773 1.602073238e-23)
(-0.01109285289 0.01293431608 -8.248825089e-24)
(-0.01885640156 0.01542603645 -1.858599066e-25)
(-0.02681311063 0.01615410001 1.825900667e-25)
(-0.03428822539 0.01530322253 5.276901778e-26)
(-0.04075192867 0.01309005193 -2.853350638e-24)
(-0.045789276 0.009748017604 -5.697626734e-25)
(-0.04907186455 0.005544643373 -1.179788274e-23)
(-0.05035570004 0.0008041527914 0)
(-0.04949466897 -0.004075504678 0)
(-0.04647363295 -0.008636502982 2.84501944e-23)
(-0.04144859735 -0.01237969041 2.997962098e-23)
(-0.03477469251 -0.01482268611 -1.798135121e-24)
(-0.02702200127 -0.01557911688 5.408834637e-23)
(-0.01895614591 -0.01445797969 1.056778424e-22)
(-0.01146689313 -0.01156963558 5.351050491e-23)
(-0.005445321067 -0.007421109182 8.789388621e-25)
(-0.001461158281 -0.002975758326 -1.392073067e-25)
(-9.096731826e-05 0.0001771918927 0)
(-0.0004874257966 0.005907410225 -4.013390533e-23)
(-0.00623572679 0.01598053078 -1.591464508e-23)
(-0.01513714317 0.02299349827 8.169935679e-24)
(-0.02561790335 0.02679030585 0)
(-0.0363680575 0.02766848533 0)
(-0.0465423021 0.02600617253 0)
(-0.05546756499 0.022178184 -1.088773422e-25)
(-0.06260366646 0.01655293042 -7.518473862e-25)
(-0.06750626401 0.00953248815 0)
(-0.06981959136 0.001599585075 2.090604779e-24)
(-0.06930187739 -0.006647047952 3.102757848e-25)
(-0.06586332485 -0.01449380423 -3.111446671e-25)
(-0.05961841567 -0.02113490602 0)
(-0.05094367298 -0.025750619 4.684216184e-23)
(-0.04051350943 -0.02762995602 -5.229437066e-23)
(-0.02929956685 -0.02634046772 -3.464598635e-23)
(-0.0185008586 -0.02192530391 -5.359809992e-23)
(-0.009385663306 -0.01508774987 7.605998149e-25)
(-0.002954557503 -0.007297733736 7.963008201e-23)
(-0.0002290046669 -0.0009138757658 0)
(-0.0005156592049 0.009850433509 4.033034886e-23)
(-0.007776019921 0.02531580367 4.842760412e-25)
(-0.01890447347 0.03554267073 -4.732185481e-25)
(-0.03200907925 0.04085947969 0)
(-0.04551712029 0.0419128 7.339627461e-25)
(-0.05844243663 0.03933430735 -7.237877634e-25)
(-0.06999790977 0.03367593933 3.387612118e-23)
(-0.07953554548 0.02543604187 1.52946106e-23)
(-0.08649279758 0.0151346097 5.101569392e-24)
(-0.09037913926 0.003395625331 -2.09304087e-24)
(-0.09080245585 -0.008989754882 0)
(-0.08751835843 -0.02103361045 5.185990285e-25)
(-0.08050655383 -0.03157085607 1.32855483e-23)
(-0.07006444547 -0.03934581711 -4.937811326e-23)
(-0.0568900623 -0.04317883271 2.339921863e-24)
(-0.04213189475 -0.04222481911 5.666948324e-23)
(-0.02735256669 -0.03630294225 -6.221686823e-25)
(-0.01435120593 -0.02622652873 0)
(-0.004797622444 -0.01399370859 5.259508042e-23)
(-0.0003573486895 -0.002872090982 -2.343673852e-22)
(-0.0005129323724 0.01462949319 9.802043134e-23)
(-0.009147769025 0.03647220584 -4.930611709e-25)
(-0.02233296183 0.05045526288 0)
(-0.03792076686 0.0575624784 0)
(-0.05412321119 0.05890875383 -8.473209799e-23)
(-0.06984836687 0.05543647489 -8.160682248e-23)
(-0.08422654704 0.04788424564 -3.752332954e-23)
(-0.09652216901 0.03685748951 -1.325688769e-23)
(-0.1060558376 0.02295207007 -4.355315037e-24)
(-0.1121780158 0.006884942649 -7.297966578e-24)
(-0.1142921211 -0.01039650757 5.606903402e-24)
(-0.1119128214 -0.02764447955 6.898287223e-24)
(-0.1047698266 -0.04329701323 -1.795357161e-23)
(-0.09295056966 -0.05555561856 -3.714407496e-24)
(-0.07705539212 -0.06258215796 0)
(-0.05834015953 -0.06285686975 -2.365587514e-23)
(-0.03876601268 -0.05569408936 2.435305525e-25)
(-0.02083980865 -0.04181854452 0)
(-0.007215152651 -0.02374910341 -1.318253203e-22)
(-0.000511024789 -0.005908442058 5.587654566e-22)
(-0.0004886630588 0.02014362067 -9.734839701e-23)
(-0.01029933539 0.0492424247 2.786609709e-22)
(-0.02527384706 0.06750381035 1.499266832e-22)
(-0.04309411074 0.07671683577 3.528469729e-24)
(-0.06181304803 0.07857089681 -7.137394333e-23)
(-0.08027722569 0.07436951894 8.680016094e-23)
(-0.09757364309 0.06503921741 -3.439308087e-24)
(-0.1129098634 0.05125512772 -1.619416807e-24)
(-0.1255058432 0.03362442416 2.35316784e-24)
(-0.1345471271 0.01287782668 6.566228166e-24)
(-0.1391970103 -0.00995934947 -5.555823166e-24)
(-0.1386551327 -0.03343487194 -7.662653238e-24)
(-0.1322837995 -0.05559207146 -3.160309757e-23)
(-0.119802111 -0.0740037998 -2.224940919e-23)
(-0.1015306148 -0.08596128727 2.693232233e-25)
(-0.07867370958 -0.08891579436 0)
(-0.05353525241 -0.08122660198 0)
(-0.02947008449 -0.0631334447 -2.556156276e-24)
(-0.01051726964 -0.03755987023 2.612843955e-24)
(-0.0007211839154 -0.01041900978 1.002039448e-22)
(-0.0004432726483 0.02624489897 0)
(-0.01114464067 0.06331688212 1.959791803e-22)
(-0.0275106528 0.08631912233 8.772190646e-23)
(-0.0471440831 0.09797044751 0)
(-0.06800242527 0.1006242221 1.526681955e-22)
(-0.08892060103 0.09598968946 0)
(-0.1089900845 0.08517963407 -1.376527413e-22)
(-0.127407812 0.06889560502 6.240133188e-24)
(-0.1433346337 0.04767809101 0)
(-0.1558213239 0.02216723963 0)
(-0.1637992904 -0.006652347121 -1.275300531e-24)
(-0.1661218678 -0.03722727038 -8.312408004e-25)
(-0.16169687 -0.06728791467 1.359636007e-22)
(-0.1497149077 -0.09376050482 -4.565987422e-23)
(-0.1299766261 -0.1128893279 -2.177374104e-24)
(-0.1033494098 -0.1206911607 1.174420235e-24)
(-0.07224699158 -0.1139267147 -1.19294523e-24)
(-0.04086507924 -0.09163325275 0)
(-0.01506717527 -0.05673766868 2.989951574e-24)
(-0.001027129876 -0.01697827834 -9.557313935e-22)
(-0.0003770646572 0.03273182333 0)
(-0.01159697994 0.07826455296 -1.109926089e-22)
(-0.02881121397 0.1063595561 -6.0718735e-22)
(-0.04963047832 0.120747085 -3.674966099e-22)
(-0.07197995231 0.1245172935 0)
(-0.09473297456 0.1198283976 4.003100805e-22)
(-0.1170391386 0.1079844475 1.215094041e-22)
(-0.1381470942 0.08967847124 -5.358476429e-24)
(-0.157231464 0.06531045317 5.331955554e-24)
(-0.1732879102 0.03531931369 0)
(-0.1850809381 0.0005050871182 2.788176605e-23)
(-0.191174281 -0.03765753145 4.424804587e-24)
(-0.1900189068 -0.07674574406 -9.990074384e-23)
(-0.180156224 -0.1131546231 7.281513595e-23)
(-0.1606139087 -0.1420370408 -2.245953456e-22)
(-0.131514794 -0.1576263102 0)
(-0.09489960093 -0.1542972155 0)
(-0.05548289071 -0.1287288976 0)
(-0.02126172352 -0.08286625226 0)
(-0.001480013365 -0.02637906736 5.275640744e-22)
(-0.0002979826144 0.03936203477 0)
(-0.01161477501 0.09355057589 -3.427784037e-22)
(-0.02901148942 0.1269120963 8.763391853e-22)
(-0.05017749512 0.1442187642 3.539623289e-22)
(-0.07305953637 0.1493577011 0)
(-0.09661617159 0.1449842215 -3.753904434e-22)
(-0.1201105475 0.1326158387 -3.078918585e-23)
(-0.1429166198 0.1129269591 3.233093157e-22)
(-0.1643216811 0.08612974775 1.713613548e-22)
(-0.1833929918 0.05237000476 -3.928792033e-23)
(-0.1988897808 0.01211594723 1.626822115e-23)
(-0.2092281927 -0.0334543828 -7.915728973e-24)
(-0.2125099604 -0.08202544633 3.246508857e-22)
(-0.2066505868 -0.1297563575 0)
(-0.1897231724 -0.1709050387 2.247038178e-22)
(-0.1606547827 -0.1978049749 5.254967085e-24)
(-0.120381269 -0.201695766 -5.333334516e-24)
(-0.07333022225 -0.1753063205 1.385149674e-22)
(-0.02948601122 -0.1176371965 -4.954414743e-24)
(-0.002156404026 -0.03965584942 0)
(-0.000230137401 0.0458974684 0)
(-0.01126146069 0.1085994615 0)
(-0.02812634951 0.1471392926 -4.928962906e-22)
(-0.04863534369 0.1673233301 -1.845226202e-23)
(-0.07079688045 0.1738965916 1.991297834e-23)
(-0.09370262547 0.1700710118 -1.967786105e-23)
(-0.1167862173 0.1576238599 -2.253591924e-23)
(-0.1396250751 0.1372378365 -2.93819995e-22)
(-0.1617322444 0.1089367142 6.608832513e-23)
(-0.1824058625 0.07252915042 4.365618524e-23)
(-0.2006073598 0.02803908175 -4.423441334e-23)
(-0.2148528163 -0.02385333114 0)
(-0.2231595589 -0.08129044673 -7.314856793e-23)
(-0.2230173524 -0.1406592977 0)
(-0.2115608084 -0.1958388117 -3.612399298e-22)
(-0.1861938149 -0.2375833287 5.022772421e-22)
(-0.1459133448 -0.2536209968 0)
(-0.0935301386 -0.2309827932 -1.335535679e-22)
(-0.04000240044 -0.162487091 1.773680865e-22)
(-0.003176399478 -0.05808662345 -3.248266697e-22)
(-0.0002267039251 0.05219046172 0)
(-0.01078096859 0.1229125309 9.036576935e-22)
(-0.02647763779 0.1661784534 -2.39955406e-23)
(-0.04526074666 0.1888364241 9.038403979e-22)
(-0.06523217973 0.1965814671 -2.464890701e-23)
(-0.08568451497 0.1932583863 2.775809767e-23)
(-0.106289321 0.1809717727 -2.750471072e-23)
(-0.1269056188 0.1604754784 -1.620697606e-23)
(-0.1473779699 0.131658258 -5.133990725e-22)
(-0.1673880843 0.09401779398 -8.6889818e-24)
(-0.1863169438 0.04709971472 9.427490571e-24)
(-0.2030739744 -0.009060776904 3.24528522e-22)
(-0.2159626484 -0.07342534986 -5.683749052e-22)
(-0.222450435 -0.1431422659 0)
(-0.2190582132 -0.2125358627 8.643152453e-22)
(-0.2016786961 -0.2716811055 -4.732079021e-22)
(-0.1667419331 -0.3052028915 -1.505868506e-23)
(-0.1138159122 -0.2931851285 0)
(-0.05272376856 -0.2179477882 -1.729077818e-22)
(-0.004725534807 -0.08313716747 3.200159913e-22)
(-0.0003944020257 0.05832554064 1.52679719e-23)
(-0.01069721425 0.1362428354 -8.624610619e-22)
(-0.02482677968 0.1832873317 -1.140766871e-21)
(-0.04087538104 0.2074907723 -8.483642014e-22)
(-0.05708483595 0.2156757077 0)
(-0.07307566913 0.2124138992 3.446714411e-23)
(-0.08885700212 0.2002072674 -7.152341125e-23)
(-0.1046502651 0.1799563399 5.750260488e-23)
(-0.1207103815 0.1515025161 2.954465628e-22)
(-0.1372029335 0.1141207532 -1.105648892e-23)
(-0.1540806219 0.06693366228 0)
(-0.1709297519 0.009298658084 -3.529135744e-22)
(-0.1866859629 -0.05873914373 7.384701003e-22)
(-0.1993038016 -0.1356370552 8.698939645e-22)
(-0.2053727298 -0.2171149616 -5.172834644e-22)
(-0.1998034745 -0.2940057027 5.06254346e-22)
(-0.1764324121 -0.3493280392 1.022227201e-23)
(-0.130178702 -0.356378092 -1.038643071e-23)
(-0.06683188871 -0.2826803753 -9.602012901e-23)
(-0.007065404447 -0.1162877387 0)
(-0.0009427800508 0.06483919314 -1.885377195e-23)
(-0.01195640959 0.1488010176 -1.310903579e-21)
(-0.02449385439 0.1979742992 1.078907156e-21)
(-0.03694051228 0.2220684584 6.651373652e-22)
(-0.0477898789 0.2293713336 5.935760025e-22)
(-0.05723730823 0.2252789671 6.549349595e-22)
(-0.06579008045 0.212721792 -4.384015391e-23)
(-0.07412469381 0.1927884835 -3.408418592e-22)
(-0.08295055484 0.1653492149 2.11953916e-22)
(-0.09294247204 0.1295689875 0)
(-0.1046665948 0.08427798207 0)
(-0.1184570819 0.0282698687 2.623842528e-22)
(-0.1341683755 -0.03935273867 8.297747331e-23)
(-0.1507691606 -0.1186394926 -2.754483725e-22)
(-0.1657157399 -0.2074902212 -5.343148692e-23)
(-0.1740257718 -0.2991822634 1.320727507e-22)
(-0.1678584462 -0.3777079854 -3.328222538e-22)
(-0.1369370138 -0.4119687323 -2.188897999e-23)
(-0.0802676441 -0.3523446618 9.588889722e-23)
(-0.01050215388 -0.1586943178 -6.120017213e-22)
(-0.002293910625 0.07310122993 0)
(-0.01613721056 0.1615206454 2.121636815e-21)
(-0.02739388898 0.2101080265 0)
(-0.0353891448 0.2314460833 -1.336915405e-21)
(-0.03914467805 0.2358560163 6.283680385e-23)
(-0.03987188875 0.2296070103 -6.104517985e-22)
(-0.03881172921 0.2159843667 -4.695614549e-22)
(-0.03719850904 0.1962141213 8.183556474e-22)
(-0.03620314885 0.1701971225 -1.856788913e-22)
(-0.0369554974 0.1370715436 0)
(-0.04055465971 0.09552992289 0)
(-0.04801676032 0.04403117264 2.463164992e-23)
(-0.0601527933 -0.01902371459 -5.944079711e-22)
(-0.07721454667 -0.09507217162 -4.265149358e-22)
(-0.09827992838 -0.1844518898 4.60985463e-22)
(-0.1198514764 -0.2842732097 -6.409121136e-22)
(-0.1343861552 -0.3827064443 8.774889657e-23)
(-0.1271920404 -0.4492471796 3.55963241e-23)
(-0.08921672622 -0.4186824458 5.686236755e-22)
(-0.01528203343 -0.2105237536 6.108484258e-22)
(-0.005209717255 0.08578491184 0)
(-0.02559864536 0.1758956524 1.473714756e-22)
(-0.03562591217 0.2193927649 -4.87482575e-23)
(-0.03766969698 0.2340161509 7.568104393e-22)
(-0.03189656851 0.2328484632 -6.931231862e-22)
(-0.02124465784 0.2228575405 4.694920752e-23)
(-0.007968944596 0.2073944996 -1.015545112e-22)
(0.006049544611 0.1875953205 -3.344795465e-22)
(0.01921651746 0.1633097731 2.040600206e-22)
(0.03006448876 0.1336488646 0)
(0.03711125681 0.09728508197 0)
(0.03883903286 0.052590356 -2.876303384e-22)
(0.03362648645 -0.002321216621 0)
(0.02002220419 -0.06966649258 -5.488564611e-22)
(-0.002999021747 -0.1517412076 -1.350715736e-23)
(-0.03456361624 -0.2498539632 2.545180953e-23)
(-0.07026401603 -0.3592189884 2.167549918e-22)
(-0.09304560305 -0.4568597573 4.902452256e-24)
(-0.08748906645 -0.4690437364 -5.817985251e-22)
(-0.02106411427 -0.2693958163 0)
(-0.01113167284 0.1085794226 0)
(-0.04277025954 0.1943685916 -8.781256708e-22)
(-0.04865090665 0.2251010991 -5.384318383e-22)
(-0.04035467058 0.2272386355 4.521268281e-22)
(-0.02038426903 0.2171876902 -1.743082902e-24)
(0.005679518153 0.2018689221 -4.527648885e-23)
(0.03441901767 0.1840340767 5.641107234e-22)
(0.06340924789 0.1642945661 -2.738808866e-23)
(0.09080619363 0.1422288767 -2.047035114e-22)
(0.1149785034 0.116856637 3.113746638e-23)
(0.134269414 0.08689433242 -3.399107427e-23)
(0.1468785201 0.0508280936 -3.66908907e-23)
(0.1506598846 0.006888239384 3.190566045e-22)
(0.1433012488 -0.04726299477 6.094349458e-22)
(0.1221100399 -0.1147067822 -5.085679737e-22)
(0.08518322703 -0.1999482546 -1.620182473e-22)
(0.03096890519 -0.3064177722 1.519356316e-22)
(-0.02435371016 -0.4236186098 7.292117561e-23)
(-0.06521175576 -0.4867489653 1.911589193e-21)
(-0.02513990044 -0.3288326603 2.953082094e-21)
(-0.02003660932 0.1461668632 -4.373664484e-23)
(-0.06429373544 0.2112366123 4.400735589e-23)
(-0.05111843464 0.217416042 9.964491783e-22)
(-0.02011572267 0.2009391574 -7.373389961e-24)
(0.02298215905 0.1802764914 0)
(0.07001604466 0.1600788756 4.334267894e-23)
(0.1172688411 0.1411514636 -2.255202511e-22)
(0.1624990715 0.1230055186 -8.94805973e-23)
(0.2041814798 0.1047137418 3.646354304e-23)
(0.2409590859 0.08518370187 -1.686120941e-23)
(0.2713430081 0.0632489891 3.403129058e-23)
(0.2935781525 0.03766821217 -6.552546603e-23)
(0.3052339249 0.006986804838 -9.251604627e-23)
(0.3037368417 -0.0304348999 1.513574706e-22)
(0.2853881477 -0.07749226158 0)
(0.2462573662 -0.1396733699 1.511051277e-22)
(0.1804422069 -0.2265191507 2.556389579e-22)
(0.09555750336 -0.3442408325 0)
(-0.006944084575 -0.4550668835 -3.672348987e-21)
(-0.01926466087 -0.3776119518 -2.890743914e-21)
(-0.02589044563 0.2277819345 -9.504993705e-22)
(-0.03993689955 0.223890205 -1.385980424e-22)
(0.03650999473 0.1809990169 -2.326586308e-22)
(0.1087915827 0.1449194542 -1.187614952e-22)
(0.1811856262 0.1169713008 -4.287484244e-23)
(0.2481806868 0.09598909913 9.735315116e-23)
(0.3089472356 0.07977464629 -1.398701715e-22)
(0.3633456797 0.06639946271 1.286079661e-22)
(0.4112512112 0.05442673612 -8.540272197e-23)
(0.4522467053 0.04274985982 1.130902608e-25)
(0.4854908176 0.03045370686 1.517195467e-23)
(0.5095956995 0.01672130245 7.948590584e-23)
(0.522709617 0.0007405952467 -1.803455715e-22)
(0.5224566281 -0.0184324214 -1.613643603e-22)
(0.5046995866 -0.04270088812 -4.261199312e-23)
(0.4654964048 -0.07622857021 0)
(0.3949969815 -0.1285769733 -1.837198773e-22)
(0.2914008091 -0.2208357764 8.138718472e-22)
(0.1196216924 -0.3524927629 1.630062339e-21)
(0.02667418549 -0.3775311708 2.171854985e-21)
(0.2143196988 0.1347744568 9.854824058e-22)
(0.2777255535 0.09874324761 0)
(0.4317646682 0.0581220257 -2.589697137e-22)
(0.5305192929 0.03845697172 -1.739247689e-22)
(0.6016177714 0.02620995542 0)
(0.6568874871 0.01828864957 -5.982658483e-23)
(0.7011431968 0.01310932639 6.331900283e-23)
(0.7371155084 0.009527468915 -1.782630998e-23)
(0.7663898012 0.006805943507 2.858206131e-23)
(0.7896629865 0.004482620902 2.293559977e-23)
(0.8069602061 0.002252401211 0)
(0.8178584822 -0.0001105455244 -2.854386378e-23)
(0.8213612725 -0.002681069391 0)
(0.8160708601 -0.005680515332 2.729911836e-23)
(0.7990602262 -0.009592358838 1.428272931e-23)
(0.7679898118 -0.01499710277 -5.787568722e-23)
(0.7106716647 -0.0250333324 -2.530066349e-22)
(0.623528503 -0.04205207104 -6.910236942e-22)
(0.4230077335 -0.09183957461 0)
(0.2705644682 -0.1524066712 -2.118702257e-21)
)


// ************************************************************************* //
