/*--------------------------------*- C++ -*----------------------------------*\
  =========                 |
  \\      /  F ield         | OpenFOAM: The Open Source CFD Toolbox
   \\    /   O peration     | Website:  https://openfoam.org
    \\  /    A nd           | Version:  13
     \\/     M anipulation  |
\*---------------------------------------------------------------------------*/
FoamFile
{
    format      ascii;
    class       volScalarField;
    location    "23";
    object      p;
}
// * * * * * * * * * * * * * * * * * * * * * * * * * * * * * * * * * * * * * //

dimensions      [0 2 -2 0 0 0 0];

internalField   nonuniform List<scalar> 
400
(
1.497052909e-06
-0.0005456941904
-0.0008876735353
-0.001015079705
-0.0009361468433
-0.0006832428858
-0.0002939368021
0.0001957996757
0.0007494621697
0.001326571199
0.001881474813
0.002361303965
0.00271066395
0.00287647306
0.002817214528
0.002514900217
0.001989987789
0.001299600129
0.0006407655685
4.492546757e-05
0.0005897733166
8.578909726e-06
-0.0003550934018
-0.0004973603831
-0.0004666308929
-0.0002894789116
4.692726776e-06
0.0003865810322
0.0008247840708
0.001282058219
0.001718574687
0.002083181292
0.002325498659
0.002398153821
0.002267274961
0.001924091702
0.001395349916
0.0007460949791
0.0001485349389
-0.0005141000285
0.0009539352257
0.0003096532897
-9.151302881e-05
-0.0002377870754
-0.0002316086929
-0.0001030325228
0.000123900626
0.0004278835732
0.0007851674858
0.001163754646
0.001531822586
0.001835291438
0.002024230518
0.002049916215
0.001877206593
0.001496277606
0.0009311024268
0.0002382327551
-0.0004601558984
-0.001297052928
0.0009775925237
0.0002595494145
-0.0001905878347
-0.0003427989056
-0.0003519853486
-0.0002549256295
-7.224491028e-05
0.0001834637841
0.0004986449648
0.0008530395684
0.001205481883
0.001513032391
0.001714911835
0.001750599549
0.001571229521
0.00115341025
0.000508954684
-0.0003154084819
-0.001230640495
-0.002381317561
0.0004819673957
-0.0002834144846
-0.0007622122216
-0.0009138104814
-0.000934721619
-0.0008661779529
-0.0007231520243
-0.000506095567
-0.0002147269054
0.0001416967295
0.00053273868
0.0009101233297
0.001202635285
0.001329400551
0.001214014798
0.0008032849055
8.315864579e-05
-0.0009143092707
-0.002124169037
-0.003652517362
-0.0006847343908
-0.001465421977
-0.001954379953
-0.00210533153
-0.002147969842
-0.002124452735
-0.002039896028
-0.001877105285
-0.001614838231
-0.001242674594
-0.0007761549205
-0.0002598189291
0.0002237174537
0.000564635767
0.0006410387909
0.0003448061332
-0.0003896523736
-0.001560562095
-0.003131200813
-0.00513825304
-0.002659958065
-0.003421573465
-0.003913347171
-0.004078615113
-0.004175817653
-0.004244657704
-0.004275438629
-0.004226150087
-0.004044340965
-0.003686225951
-0.003137261618
-0.002423202229
-0.001629941201
-0.0008998826997
-0.0004212884586
-0.0003951474287
-0.0009846457199
-0.002256883522
-0.004228889464
-0.006824257707
-0.005552802451
-0.006267652192
-0.006765836252
-0.006979642517
-0.007192822286
-0.007440449548
-0.00769384896
-0.007878606634
-0.007898299109
-0.007656530559
-0.007083137215
-0.006155231378
-0.004939515528
-0.003600728588
-0.002409915592
-0.001710600136
-0.001839331608
-0.003011103808
-0.005364401575
-0.008657975502
-0.009432558508
-0.01007886255
-0.01059562698
-0.01090768892
-0.01132282083
-0.01187235878
-0.0125073457
-0.01311532726
-0.01354313395
-0.01361843192
-0.01317738718
-0.01211599765
-0.01042298587
-0.008251701348
-0.005951717613
-0.00405754121
-0.003185990026
-0.0038389565
-0.006422269762
-0.01048725217
-0.01431378575
-0.01487279378
-0.01541968812
-0.01587872308
-0.01658622869
-0.01757593282
-0.01878231411
-0.02005396497
-0.02117202058
-0.02186774081
-0.02185132217
-0.02086616781
-0.01876594995
-0.01561438926
-0.01178972816
-0.008032390744
-0.00535529932
-0.004755772363
-0.007176809972
-0.01197473674
-0.02015074074
-0.0206010292
-0.02117113928
-0.0217929176
-0.02284789621
-0.0243856585
-0.02633397073
-0.02850780344
-0.03062125441
-0.0322968143
-0.03308835455
-0.03253377442
-0.03027571087
-0.02617223676
-0.02051888652
-0.01419843658
-0.008686546176
-0.005721990223
-0.007214789116
-0.01246187708
-0.02685226577
-0.02715812801
-0.02769850764
-0.02841870072
-0.02978450985
-0.03188392152
-0.03465310677
-0.03788327752
-0.04122705305
-0.04419781078
-0.04618069939
-0.04647138356
-0.04445586573
-0.03965317628
-0.03211465147
-0.02269294024
-0.01326132334
-0.006481171054
-0.005804153777
-0.0107608249
-0.03433022648
-0.0344137864
-0.03478510919
-0.03540000074
-0.03688694344
-0.03940458228
-0.04291402923
-0.04719107889
-0.05183298723
-0.05625099179
-0.05967224617
-0.06118349741
-0.05977242814
-0.05464909106
-0.04543486154
-0.03269403298
-0.01844795391
-0.00624125472
-0.001669673801
-0.004869527711
-0.04260511613
-0.04227488626
-0.04219115893
-0.04229135766
-0.04350879216
-0.0461110206
-0.05009368114
-0.05521391721
-0.06100817313
-0.06678906443
-0.07163303209
-0.07440617883
-0.07382615937
-0.06866898273
-0.05806655835
-0.04205689599
-0.02243552932
-0.003253075013
0.007350862793
0.008344945398
-0.05200555665
-0.05075644811
-0.04967341762
-0.04857450863
-0.04892215041
-0.05111516678
-0.05516733949
-0.06079021504
-0.06742915126
-0.07428338844
-0.08027640778
-0.08407025247
-0.08412526374
-0.07883278274
-0.06683863351
-0.04751967994
-0.02212402549
0.005505011296
0.02471839232
0.03353012682
-0.06365131261
-0.06018487334
-0.05709326186
-0.05376044141
-0.05246147013
-0.05367577152
-0.05736003904
-0.06313289757
-0.07025695478
-0.07779533572
-0.0844872505
-0.08878097334
-0.08889406419
-0.082836053
-0.06884783322
-0.04561832775
-0.01374934061
0.02441903841
0.05554170986
0.07735777555
-0.08018226868
-0.07107111625
-0.06411770209
-0.05716224625
-0.05342837724
-0.05321211965
-0.0562553381
-0.06190983205
-0.06925458644
-0.07711248457
-0.08400798804
-0.08814798698
-0.08747712475
-0.07965381015
-0.06247747779
-0.03404900951
0.005565704703
0.05859566459
0.1058243488
0.14806899
-0.1105042408
-0.08585187962
-0.07160426254
-0.05896956813
-0.0519119652
-0.04988132036
-0.05210054551
-0.05750610364
-0.06485649049
-0.07270523335
-0.07933686596
-0.08271071645
-0.08051733178
-0.06988503076
-0.04823093248
-0.01272162438
0.03823674015
0.1071327643
0.1779793191
0.2564771148
-0.1684349495
-0.09990654304
-0.07500716938
-0.05479708915
-0.04461816855
-0.04158427749
-0.04371628447
-0.04937957906
-0.05701475334
-0.06496812295
-0.0713591255
-0.07397784311
-0.07012730703
-0.05701173206
-0.03102716493
0.01193021189
0.07559997286
0.166404619
0.2761623702
0.4377047073
-0.398426242
-0.1380977735
-0.07496946247
-0.04708785411
-0.03354890507
-0.03002931461
-0.03280090808
-0.03926308137
-0.04755636589
-0.05593667093
-0.06249775506
-0.06502720316
-0.06099306074
-0.04696765252
-0.01875521545
0.02993652296
0.1069563376
0.2334277427
0.419880652
0.780023877
)
;

boundaryField
{
    movingWall
    {
        type            zeroGradient;
    }
    fixedWalls
    {
        type            zeroGradient;
    }
    frontAndBack
    {
        type            empty;
    }
}


// ************************************************************************* //
