/*--------------------------------*- C++ -*----------------------------------*\
  =========                 |
  \\      /  F ield         | OpenFOAM: The Open Source CFD Toolbox
   \\    /   O peration     | Website:  https://openfoam.org
    \\  /    A nd           | Version:  13
     \\/     M anipulation  |
\*---------------------------------------------------------------------------*/
FoamFile
{
    format      ascii;
    class       scalarField;
    location    "23";
    object      p_all;
}
// * * * * * * * * * * * * * * * * * * * * * * * * * * * * * * * * * * * * * //


400
(
-2.766745666e-09
-0.0004974245986
-0.001095235697
-0.001544804992
-0.001730963023
-0.001607687954
-0.001154494618
-0.0003648940589
0.0007484773264
0.002140668379
0.003720977727
0.005347215496
0.006835385368
0.007988227088
0.008641106627
0.008714459191
0.008255382843
0.007453094913
0.006616794924
0.006084671226
0.0005030548237
-1.151020158e-05
-0.0005346684607
-0.0008900671782
-0.001021456522
-0.0009037653559
-0.0005198879133
0.0001404907005
0.001073303935
0.002247222097
0.003590510164
0.004984757811
0.006271461921
0.007277477402
0.007856379235
0.007936280369
0.007555955086
0.006871460187
0.006126763519
0.005584140785
0.00112410563
0.0004756766268
-7.746117867e-05
-0.0004028633359
-0.0005203432404
-0.0004368292092
-0.0001413557734
0.0003830463827
0.001146792423
0.002138037611
0.003306462238
0.004552957219
0.00573247654
0.006676091854
0.007231993795
0.007315289051
0.006945801144
0.006249904112
0.005422198335
0.004713507355
0.001561481591
0.0007236401071
6.289081688e-05
-0.0003026221667
-0.0004608080993
-0.0004498230835
-0.0002633576086
0.0001259669522
0.0007483582454
0.001616275133
0.002702353714
0.00392233954
0.005131705795
0.006144300545
0.00677530795
0.006899449953
0.006500203604
0.005677777618
0.004612204915
0.003613249464
0.001579960496
0.0005486051548
-0.0002453946267
-0.000691051764
-0.0009341597318
-0.001037492619
-0.0009941548424
-0.000760990333
-0.0002819507104
0.0004862572545
0.001545098556
0.002828200685
0.004188349877
0.005409526467
0.006250483484
0.006514831987
0.006121448998
0.005133259328
0.003736328284
0.002354091577
0.0009863385504
-0.0002203929556
-0.001150857043
-0.001702863471
-0.002072185342
-0.002339312267
-0.002491115485
-0.002462929821
-0.002165666118
-0.0015154415
-0.0004696643072
0.0009358282607
0.002559313112
0.004151461254
0.005393496933
0.005979039701
0.005715630697
0.004593841588
0.00280533977
0.0009429371926
-0.0003839728855
-0.001737978354
-0.002800632753
-0.003482625086
-0.004023781435
-0.004517203829
-0.004939627315
-0.005200305312
-0.005169498102
-0.004709724906
-0.003717622885
-0.002174309351
-0.0001926273145
0.001955381601
0.003858807521
0.005054218081
0.005165351908
0.00403734961
0.00183303509
-0.0006211635995
-0.002662608503
-0.004129776265
-0.005317262891
-0.006153253874
-0.006917582078
-0.007713832514
-0.008507957768
-0.009181334335
-0.009557287697
-0.009430236567
-0.008610405489
-0.006986815319
-0.004601416053
-0.001715106593
0.001172966104
0.003396161988
0.004294104332
0.003437534475
0.0008655925189
-0.002296193677
-0.005938469544
-0.007479971199
-0.008780569023
-0.009790324111
-0.01082776561
-0.01200900517
-0.01329308539
-0.01453610631
-0.01551192462
-0.01593435463
-0.01549956684
-0.01395856081
-0.01122010175
-0.007468469722
-0.003250508652
0.000541198061
0.002846627695
0.002764542642
1.611594009e-05
-0.003938289544
-0.01024862908
-0.01182114736
-0.01321212557
-0.01439722399
-0.01573753998
-0.01736955543
-0.01925458765
-0.0212313521
-0.02302754976
-0.02427029433
-0.02451945402
-0.02334179775
-0.02043995419
-0.01582355959
-0.009993214369
-0.004031599144
0.0005091079534
0.001999943595
-0.0004879681613
-0.005217428736
-0.01557686345
-0.01713125767
-0.01856539978
-0.01988394718
-0.02150476788
-0.02360074455
-0.02614983306
-0.02898561006
-0.0317987313
-0.03413248777
-0.03540085698
-0.03495408108
-0.03222202001
-0.02692567981
-0.0193717868
-0.01070519746
-0.002975553042
0.001201540295
-0.0002282340236
-0.005487357485
-0.02186910841
-0.02334475452
-0.02472716284
-0.02605610095
-0.02784027575
-0.03031638479
-0.03349685879
-0.03722293733
-0.04115923783
-0.04477500574
-0.04734435308
-0.04799532044
-0.04583697938
-0.04021407068
-0.03106594505
-0.01937581711
-0.007543342984
0.0006731143709
0.001541638226
-0.0035862805
-0.0290782697
-0.03038485637
-0.03153338891
-0.03261829195
-0.03430836225
-0.03694537645
-0.04059285396
-0.0451057979
-0.05012756037
-0.05506195887
-0.05905670516
-0.06103057235
-0.05978128953
-0.05422504736
-0.04379721732
-0.02905298757
-0.01242300837
0.001266765037
0.006133578117
0.002452454508
-0.03726198544
-0.03822433765
-0.03879702112
-0.03918943907
-0.04035280749
-0.04278431185
-0.04660291548
-0.0516660882
-0.05758377289
-0.06368979638
-0.06901362638
-0.07228753454
-0.0720288662
-0.06674410458
-0.05531436425
-0.03765540692
-0.01580710105
0.004732458824
0.01576019185
0.01576650153
-0.04678330894
-0.04698719256
-0.04634113313
-0.04532378025
-0.0453473212
-0.04709496018
-0.0507102169
-0.05601126178
-0.06253624748
-0.06952182207
-0.07586778192
-0.08012873572
-0.08057303522
-0.07535140126
-0.06283606811
-0.04223661984
-0.0148293362
0.01390181629
0.03378872803
0.04089348887
-0.05865709844
-0.05711940209
-0.05404648806
-0.05054949859
-0.04868235914
-0.04924409038
-0.05229932678
-0.05754440722
-0.06437765085
-0.07188901238
-0.07881358093
-0.08351140402
-0.08400699036
-0.07813048238
-0.06381970606
-0.03964707609
-0.005949847273
0.03257483585
0.06465362889
0.08333608388
-0.07513439964
-0.06970179801
-0.06188443716
-0.05439980295
-0.04985542148
-0.04882606144
-0.0510862461
-0.0560823029
-0.06299160024
-0.0706944745
-0.07771851992
-0.08219758151
-0.0818895026
-0.0742828921
-0.05687290735
-0.02762302707
0.01411105147
0.06510685155
0.1140445298
0.1497870342
-0.1033197982
-0.08722431226
-0.06954069829
-0.05604421359
-0.04818615464
-0.04541355668
-0.04688528185
-0.05164349346
-0.05855015896
-0.06623793694
-0.07301721271
-0.07678685434
-0.07502737208
-0.06483366933
-0.04311186568
-0.006928451825
0.04579374435
0.1144646308
0.1907608388
0.2575648952
-0.1752998777
-0.1143265233
-0.0734120677
-0.05189696946
-0.04122691188
-0.03744268583
-0.03881177289
-0.04387496274
-0.05112118032
-0.0589696508
-0.06561200369
-0.06879125769
-0.06578678287
-0.05334973746
-0.02769641042
0.01556933462
0.08156318965
0.1761274408
0.3040857439
0.4518075693
-0.3551773841
-0.1547093016
-0.07017195132
-0.04276269841
-0.03138425521
-0.02747837243
-0.02935667728
-0.0351963453
-0.04314313511
-0.0514693298
-0.05831543465
-0.06143509777
-0.05808114437
-0.04488563006
-0.0174547268
0.03018089803
0.1075286826
0.23237391
0.4338312623
0.7349861055
)


// ************************************************************************* //
