/*--------------------------------*- C++ -*----------------------------------*\
  =========                 |
  \\      /  F ield         | OpenFOAM: The Open Source CFD Toolbox
   \\    /   O peration     | Website:  https://openfoam.org
    \\  /    A nd           | Version:  13
     \\/     M anipulation  |
\*---------------------------------------------------------------------------*/
FoamFile
{
    format      ascii;
    class       surfaceScalarField;
    location    "23";
    object      phi;
}
// * * * * * * * * * * * * * * * * * * * * * * * * * * * * * * * * * * * * * //

dimensions      [0 3 -1 0 0 0 0];

internalField   nonuniform List<scalar> 
760
(
-1.322672802e-05
1.321024257e-05
-7.201607956e-05
5.878935185e-05
-0.0001620590392
9.004294572e-05
-0.0002651962178
0.0001031372286
-0.0003682035617
0.0001030074503
-0.0004614550165
9.325149846e-05
-0.0005376932573
7.62381487e-05
-0.0005911816619
5.348823622e-05
-0.0006174492273
2.626745742e-05
-0.0006135336308
-3.915557385e-06
-0.0005784124253
-3.51210545e-05
-0.0005138062443
-6.460602329e-05
-0.0004246356573
-8.917051013e-05
-0.0003192706948
-0.0001053649801
-0.0002092253889
-0.0001100453657
-0.0001081462959
-0.0001010791326
-2.993594878e-05
-7.82103405e-05
1.413970357e-05
-4.407561522e-05
2.190432046e-05
-7.764576756e-06
2.190434907e-05
-6.869936854e-05
8.190961901e-05
-0.0002457495884
0.0002358396212
-0.0004934149439
0.0003377082498
-0.0007721837167
0.0003819058742
-0.001050280753
0.000381104457
-0.001302848233
0.0003458191438
-0.001510425166
0.0002838153596
-0.001657682145
0.0002007454143
-0.00173300973
0.0001015950399
-0.001729126524
-7.798922427e-06
-0.001643673181
-0.0001205745719
-0.001481284477
-0.0002269947977
-0.001254285533
-0.0003161693947
-0.0009832325472
-0.0003764178414
-0.0006961099646
-0.0003971678403
-0.0004257234466
-0.0003714655963
-0.0002049992194
-0.00029893455
-5.982185861e-05
-0.0001892529624
-4.973077515e-07
-6.708910374e-05
2.140706648e-05
-0.0001229194359
0.0002048290423
-0.0004149184996
0.00052783879
-0.0008085611383
0.0007313510042
-0.001247000095
0.0008203448113
-0.001684441188
0.0008185453999
-0.002084163114
0.0007455409162
-0.002416664405
0.0006163166255
-0.002658256366
0.0004423375002
-0.00279067001
0.0002340088649
-0.002802105482
3.636669541e-06
-0.002687624021
-0.0002350560134
-0.002452725276
-0.0004618935909
-0.002113984863
-0.0006549098562
-0.001700239396
-0.0007901633092
-0.001251736527
-0.0008456706654
-0.000816699701
-0.000806502365
-0.0004446070231
-0.000671027181
-0.0001762307751
-0.0004576291788
-3.221393482e-05
-0.0002111059197
-1.08068483e-05
-0.0001720545936
0.0003768835844
-0.0005724811629
0.0009282653245
-0.001105815123
0.001264685081
-0.001697805391
0.001412335233
-0.002290291657
0.001411031742
-0.002836885822
0.001292135038
-0.003299801754
0.00107923245
-0.003647849076
0.000790384751
-0.003855889427
0.0004420492381
-0.003905382247
5.31295773e-05
-0.003787347538
-0.0003530906277
-0.003503674675
-0.0007455663982
-0.003070983843
-0.001087600674
-0.002522409581
-0.001338737572
-0.00190784165
-0.001460238584
-0.001290810642
-0.00142353334
-0.0007407062166
-0.001221131563
-0.0003202537279
-0.0008780816244
-7.109982327e-05
-0.0004602597902
-8.190665358e-05
-0.0002169915135
0.000593875132
-0.0007187334239
0.001430007111
-0.001385466743
0.00193141834
-0.002126839527
0.002153708065
-0.002874000079
0.002158192409
-0.003572744135
0.001990879194
-0.004178469482
0.001684957828
-0.00465303793
0.001264953167
-0.004963639375
0.0007526506429
-0.005083469401
0.0001729596014
-0.004994508946
-0.0004420510415
-0.004690728044
-0.00104934724
-0.004183126229
-0.001595202438
-0.003504077073
-0.002017786694
-0.00271022
-0.002254095633
-0.001881426254
-0.00225232706
-0.001113148265
-0.001989409517
-0.0005007851155
-0.001490444731
-0.0001191342179
-0.0008419106468
-0.0002010408522
-0.0002573323218
0.0008512075551
-0.0008512281287
0.002023902932
-0.001642085794
0.002722275938
-0.002526240741
0.003037862956
-0.003426484044
0.003058435714
-0.004282884488
0.002847279702
-0.005045642485
0.002447715907
-0.005670400593
0.001889711331
-0.006116113312
0.00119836338
-0.006345348331
0.0004021946222
-0.006327238573
-0.0004601607863
-0.006041922646
-0.001334663133
-0.005487840665
-0.002149284373
-0.004689584313
-0.002816043001
-0.00370542393
-0.003238255975
-0.002630974322
-0.003326776631
-0.001594103666
-0.003026280137
-0.0007363314615
-0.002348216894
-0.0001821069497
-0.001396135115
-0.0003831477809
-0.0002911495329
0.001142357105
-0.000964012293
0.002696765805
-0.00186394954
0.003622213227
-0.002877823018
0.004051736421
-0.003923038074
0.004103650742
-0.004936483941
0.003860725567
-0.005865298333
0.003376530338
-0.006660360428
0.002684773488
-0.007272770524
0.001810773534
-0.007653300763
0.0007827249006
-0.007755153788
-0.0003583077282
-0.007539180079
-0.001550636806
-0.006983483961
-0.002704980449
-0.00609535413
-0.003704172786
-0.004925341213
-0.004408268847
-0.003579220784
-0.004672897015
-0.002220229295
-0.004385271583
-0.001050770595
-0.003517675549
-0.0002684482465
-0.002178457415
-0.0006515960035
-0.0003159347635
0.001458291815
-0.00104863536
0.003429466459
-0.002034335702
0.004607913645
-0.003154606147
0.005172006922
-0.004324737188
0.005273781806
-0.005481366265
0.00501735465
-0.006571378374
0.004466542465
-0.007543515671
0.003656910827
-0.008343175065
0.002610432987
-0.008910484362
0.001350034255
-0.009182171594
-8.6620445e-05
-0.009096409537
-0.001636398812
-0.008604032504
-0.003197357427
-0.007683718134
-0.004624487099
-0.006363675887
-0.00572831104
-0.004745752157
-0.006290820695
-0.003022696058
-0.006108327634
-0.001469489513
-0.005070882048
-0.0003882194264
-0.003259727451
-0.001039815403
-0.0003291725072
0.001787464308
-0.001096363658
0.004196657605
-0.002134923868
0.005646473892
-0.003325128043
0.006362211156
-0.004583328596
0.006531982419
-0.005848976843
0.006283002942
-0.007072118711
0.005689684365
-0.008203324761
0.004788116919
-0.009186731042
0.00359383933
-0.009956354985
0.00211965827
-0.01043553372
0.0003925583516
-0.01054173157
-0.001530200895
-0.01019454859
-0.003544540353
-0.00933365015
-0.005485385469
-0.007946254761
-0.007115706362
-0.006105634813
-0.00813144058
-0.00401273324
-0.008201229151
-0.002014490367
-0.007069124868
-0.000552772443
-0.004721445324
-0.001592587819
-0.0003297809529
0.002117245305
-0.001101656135
0.004968532802
-0.002151327809
0.006696145581
-0.003360924724
0.007571808108
-0.00465063527
0.007821693025
-0.005965696234
0.007598063975
-0.007263079239
0.006987067428
-0.008500238487
0.006025276216
-0.009626668503
0.00472026941
-0.01057825292
0.003071242778
-0.01127424553
0.001088551053
-0.01161780369
-0.001186642658
-0.01150129287
-0.003661051104
-0.01082020561
-0.006166472665
-0.009502708446
-0.008433203453
-0.007560361438
-0.01007378752
-0.005160691793
-0.01060089873
-0.00269601285
-0.00953380375
-0.0007741179774
-0.006643340139
-0.00236670577
-0.0003199365914
0.002437181945
-0.001066682511
0.005715278785
-0.002080403624
0.00770986673
-0.00324677141
0.008738175923
-0.004492240863
0.009067162523
-0.005770786564
0.00887660975
-0.007050217112
0.008266498063
-0.008300438929
0.007275498103
-0.009484200767
0.005904031308
-0.01054986553
0.004136907621
-0.01142552563
0.001964211255
-0.01201407309
-0.0005980950989
-0.01219368336
-0.003481440733
-0.01182083967
-0.006539316277
-0.01075523282
-0.009498810233
-0.008913600381
-0.01191541989
-0.006370726374
-0.01314377267
-0.003498878453
-0.01240565161
-0.001063120143
-0.009079098387
-0.003429825885
-0.0003074255431
0.00274460751
-0.001006628369
0.006414481691
-0.001938417348
0.008641655776
-0.002991977731
0.009791736357
-0.004102905623
0.01017809045
-0.005237555273
0.01001125945
-0.006378751372
0.009407694261
-0.007514227247
0.00841097409
-0.008627495631
0.00701729978
-0.009690024261
0.005199436321
-0.0106533285
0.002927515575
-0.01143774722
0.0001863237165
-0.01192960775
-0.002989580098
-0.01196509639
-0.006503827532
-0.01134378752
-0.01012011902
-0.009868959927
-0.01339024741
-0.007460068442
-0.01555266409
-0.004363783657
-0.01550193633
-0.001425510978
-0.01201737101
-0.004855336836
-0.0003089580974
0.003053565623
-0.0009556522096
0.007061175866
-0.001768634377
0.009454638018
-0.002639590582
0.01066269265
-0.003518512381
0.01105701231
-0.004390018924
0.01088276603
-0.005257058018
0.01027473341
-0.006129892351
0.009283808536
-0.007018117802
0.007905525362
-0.007923760411
0.00610507904
-0.008832655629
0.003836410879
-0.009704643515
0.001058311681
-0.01045112013
-0.002243103397
-0.01092445257
-0.006030495007
-0.01089527715
-0.01014929436
-0.01006504076
-0.01422048373
-0.008157368865
-0.01746033592
-0.005167634732
-0.0184916704
-0.001854337405
-0.01533066828
-0.006709674217
-0.0003553113091
0.003408876968
-0.0009734557291
0.007679320332
-0.001646273631
0.01012745596
-0.002269017933
0.01128543704
-0.002817230162
0.01160522466
-0.00330415514
0.01136969107
-0.003759930618
0.01073050891
-0.00422149277
0.009745370737
-0.004726748308
0.008410780999
-0.005310382245
0.006688713103
-0.005997277246
0.004523305998
-0.00679240001
0.001853434543
-0.007661146452
-0.001374356875
-0.008503524131
-0.005188117257
-0.009113581171
-0.009539237254
-0.009142798183
-0.01419126665
-0.008128570866
-0.01847456318
-0.005711221787
-0.02090901943
-0.002318291616
-0.01872359841
-0.009027965815
-0.0005004257503
0.003909302771
-0.001151445475
0.008330340135
-0.001675089774
0.01065110027
-0.001982028443
0.01159237571
-0.00209616783
0.01171936416
-0.002076319484
0.01134984287
-0.001989126169
0.01064331569
-0.001901846063
0.009658090674
-0.001879644128
0.008388579104
-0.001986690107
0.00679575915
-0.002283169875
0.004819785855
-0.002819426176
0.002389690937
-0.003622775411
-0.0005710075579
-0.004669400795
-0.004141491806
-0.005835107863
-0.008373530131
-0.006808030249
-0.01321834422
-0.007016912795
-0.0182656806
-0.005716519658
-0.02220941254
-0.002739594668
-0.02170052336
-0.01176756047
-0.0008309351562
0.004740237957
-0.001604989687
0.0091043948
-0.001951268986
0.01099737966
-0.001839807901
0.01148091457
-0.001385981936
0.01126553817
-0.0007187767051
0.01068263773
4.749636176e-05
0.00987704276
0.0008156566499
0.008889930509
0.001494606663
0.007709629177
0.001997688447
0.006292677431
0.002237819097
0.004579655268
0.002127707673
0.002499802425
0.001582566193
-2.58660145e-05
0.000544504155
-0.003103429712
-0.0009847670953
-0.006844258837
-0.002828767573
-0.01137434371
-0.004459394243
-0.0166350539
-0.00481063466
-0.0218581721
-0.002944334315
-0.02356682369
-0.01471189478
-0.001465722536
0.006205960482
-0.0023800112
0.01001868352
-0.002373704912
0.01099107359
-0.001603935344
0.01071114508
-0.0003501430598
0.01001174583
0.001163027546
0.009169467068
0.002771162378
0.008268907941
0.004348821555
0.007312271401
0.005790912349
0.006267538472
0.006997332562
0.005086257301
0.007864860129
0.003712127769
0.008281712638
0.002082949972
0.008123324274
0.0001325223942
0.007264065871
-0.002244171273
0.005584850034
-0.00516504297
0.003073582912
-0.00886307657
7.878138671e-05
-0.01364025236
-0.00244587586
-0.01933351485
-0.002601123834
-0.0234115757
-0.01731301862
-0.002365520048
0.008571480561
-0.002963882646
0.01061704595
-0.001922981121
0.009950172187
8.083686845e-05
0.008707327318
0.002534499596
0.007558083251
0.005139774173
0.00656419255
0.007719204571
0.005689477565
0.01015403591
0.004877440089
0.01234898402
0.004072590412
0.01421143841
0.003223802971
0.01564002561
0.002283540636
0.01651714042
0.001205835219
0.01669671286
-4.705000788e-05
0.01602681037
-0.001574268752
0.01430483686
-0.003443069436
0.01133263107
-0.005890870771
0.007055455099
-0.00936307638
0.002201525398
-0.01447958514
-0.001027363333
-0.02018268697
-0.01834038195
-0.002150331892
0.01072181262
-7.199483511e-05
0.008538708635
0.003741855646
0.006136321496
0.007719659693
0.004729523213
0.0115616739
0.003716069085
0.01514073225
0.002985134266
0.01839851224
0.002431697636
0.02130116936
0.001974783019
0.02381203311
0.001561726717
0.02587934694
0.001156489184
0.02743021647
0.0007326711627
0.02836442637
0.0002716253569
0.02857538196
-0.0002580055577
0.02788748781
-0.0008863745693
0.02609921463
-0.00165479624
0.02290817656
-0.002699832698
0.01790690002
-0.004361799832
0.01076686386
-0.007339548993
0.002912161153
-0.01232798426
-0.0154282208
0.01072181278
0.01926052158
0.02539684314
0.03012636636
0.03384243544
0.03682756971
0.03925926737
0.04123405042
0.04279577717
0.04395226638
0.04468493757
0.04495656295
0.0446985574
0.04381218284
0.0421573866
0.0394575539
0.03509575406
0.02775620507
0.0154282208
)
;

boundaryField
{
    movingWall
    {
        type            calculated;
        value           uniform 0;
    }
    fixedWalls
    {
        type            calculated;
        value           uniform 0;
    }
    frontAndBack
    {
        type            empty;
    }
}


// ************************************************************************* //
