/*--------------------------------*- C++ -*----------------------------------*\
  =========                 |
  \\      /  F ield         | OpenFOAM: The Open Source CFD Toolbox
   \\    /   O peration     | Website:  https://openfoam.org
    \\  /    A nd           | Version:  13
     \\/     M anipulation  |
\*---------------------------------------------------------------------------*/
FoamFile
{
    format      ascii;
    class       surfaceScalarField;
    location    "23";
    object      phi_0;
}
// * * * * * * * * * * * * * * * * * * * * * * * * * * * * * * * * * * * * * //

dimensions      [0 3 -1 0 0 0 0];

internalField   nonuniform List<scalar> 
760
(
-1.322674766e-05
1.321023147e-05
-7.201608409e-05
5.878934399e-05
-0.0001620589343
9.004287901e-05
-0.0002651960328
0.0001031370657
-0.0003682034095
0.0001030072892
-0.0004614549207
9.325148734e-05
-0.00053769313
7.623832211e-05
-0.0005911814099
5.34884702e-05
-0.0006174488585
2.626758035e-05
-0.0006135332563
-3.915615672e-06
-0.0005784121578
-3.51212225e-05
-0.000513806124
-6.460616359e-05
-0.0004246356445
-8.917052757e-05
-0.0003192707184
-0.0001053648787
-0.000209225404
-0.0001100452229
-0.0001081463011
-0.0001010790291
-2.993596189e-05
-7.821030875e-05
1.413967857e-05
-4.407563827e-05
2.190430211e-05
-7.764622194e-06
2.19043156e-05
-6.869932532e-05
8.190956001e-05
-0.0002457495336
0.000235839533
-0.0004934147432
0.0003377081724
-0.0007721832455
0.0003819057303
-0.001050280063
0.0003811041746
-0.00130284748
0.0003458187781
-0.001510424462
0.0002838150695
-0.001657681482
0.0002007453344
-0.001733009031
0.0001015951758
-0.001729125766
-7.798675588e-06
-0.001643672424
-0.000120574342
-0.001481283829
-0.0002269946361
-0.00125428508
-0.0003161692803
-0.0009832323013
-0.0003764177228
-0.0006961098742
-0.0003971676951
-0.000425723441
-0.00037146545
-0.0002049992466
-0.0002989344499
-5.982188614e-05
-0.0001892529375
-4.973121412e-07
-6.70891429e-05
2.140701422e-05
-0.0001229192991
0.0002048288876
-0.0004149182558
0.000527838411
-0.0008085607745
0.0007313506026
-0.001246999479
0.0008203444832
-0.001684440233
0.0008185451099
-0.002084161864
0.0007455405952
-0.002416663007
0.0006163162756
-0.002658254974
0.0004423372164
-0.002790668703
0.0002340087657
-0.002802104251
3.636795556e-06
-0.002687622879
-0.0002350556876
-0.002452724254
-0.0004618931648
-0.00211398402
-0.0006549094146
-0.001700238786
-0.0007901629009
-0.001251736156
-0.0008456703098
-0.0008166995238
-0.0008065020775
-0.0004446069689
-0.0006710269856
-0.0001762307738
-0.0004576290951
-3.221393214e-05
-0.0002111059375
-1.080690121e-05
-0.0001720544628
0.0003768834167
-0.0005724807169
0.0009282647256
-0.001105814443
0.001264684239
-0.001697804471
0.001412334387
-0.002290290445
0.001411031039
-0.002836884285
0.001292134512
-0.003299799935
0.00107923207
-0.003647847106
0.0007903844978
-0.003855887461
0.0004420491434
-0.003905380402
5.312969655e-05
-0.003787345871
-0.0003530902633
-0.003503673216
-0.0007455658238
-0.003070982618
-0.001087599971
-0.002522408621
-0.001338736839
-0.001907840973
-0.001460237908
-0.001290810231
-0.001423532787
-0.0007407060164
-0.001221131176
-0.0003202536628
-0.0008780814204
-7.10998126e-05
-0.000460259748
-8.190669326e-05
-0.0002169914663
0.0005938748633
-0.0007187329526
0.001430006363
-0.001385465847
0.00193141722
-0.002126838265
0.002153706789
-0.002873998504
0.002158191198
-0.003572742272
0.001990878216
-0.004178467352
0.001684957161
-0.004653035594
0.001264952817
-0.004963636949
0.0007526505869
-0.005083467026
0.0001729598288
-0.004994506741
-0.0004420505325
-0.004690726091
-0.001049346474
-0.004183124574
-0.001595201477
-0.003504075746
-0.002017785637
-0.002710219014
-0.002254094597
-0.001881425599
-0.002252326159
-0.001113147898
-0.001989408838
-0.0005007849651
-0.00149044432
-0.0001191341869
-0.0008419104882
-0.0002010408582
-0.0002573322538
0.0008512070314
-0.0008512277117
0.002023901839
-0.00164208488
0.002722274487
-0.002526239333
0.003037861334
-0.003426482214
0.003058434115
-0.004282882329
0.002847278311
-0.005045640073
0.002447714872
-0.005670397991
0.001889710734
-0.006116110599
0.001198363236
-0.006345345613
0.000402194904
-0.006327235973
-0.000460160119
-0.006041920276
-0.001334662134
-0.005487838608
-0.002149283117
-0.004689582623
-0.002816041593
-0.003705422638
-0.003238254547
-0.002630973429
-0.003326775327
-0.001594103136
-0.003026279089
-0.0007363312231
-0.002348216193
-0.0001821068934
-0.001396134777
-0.0003831477283
-0.0002911493608
0.001142356392
-0.0009640118623
0.002696764271
-0.001863948672
0.003622211294
-0.002877821649
0.004051734366
-0.003923036226
0.004103648767
-0.004936481697
0.003860723836
-0.005865295798
0.003376528995
-0.006660357701
0.002684772641
-0.007272767688
0.00181077324
-0.007653297901
0.0007827251563
-0.007755151001
-0.0003583069671
-0.007539177475
-0.001550635609
-0.006983481638
-0.002704978908
-0.006095352168
-0.003704171019
-0.004925339667
-0.004408267005
-0.00357921968
-0.00467289527
-0.002220228615
-0.004385270108
-0.001050770273
-0.00351767449
-0.0002684481639
-0.002178456842
-0.0006515958685
-0.0003159345697
0.001458291038
-0.001048634906
0.003429464605
-0.002034334888
0.00460791125
-0.003154604908
0.005172004385
-0.004324735512
0.005273779407
-0.005481364194
0.005017352578
-0.00657137599
0.00446654085
-0.007543513076
0.003656909771
-0.008343172356
0.002610432554
-0.008910481616
0.00135003446
-0.00918216889
-8.661963906e-05
-0.009096406959
-0.001636397483
-0.008604030146
-0.003197355668
-0.007683716082
-0.004624485032
-0.006363674215
-0.005728308821
-0.004745750917
-0.006290818515
-0.003022695264
-0.006108325708
-0.001469489119
-0.005070880584
-0.0003882193182
-0.003259726593
-0.001039815163
-0.0003291723972
0.001787463477
-0.001096363284
0.004196655566
-0.002134923186
0.005646471179
-0.003325127023
0.006362208231
-0.004583327237
0.006531979636
-0.005848975165
0.006283000546
-0.007072116761
0.005689682508
-0.008203322613
0.004788115688
-0.009186728785
0.003593838782
-0.009956352694
0.002119658423
-0.01043553144
0.0003925591724
-0.01054172936
-0.001530199484
-0.01019454651
-0.003544538454
-0.009333648274
-0.005485383203
-0.007946253165
-0.007115703873
-0.006105633571
-0.008131438054
-0.004012732403
-0.008201226821
-0.00201448993
-0.007069122999
-0.0005527723148
-0.004721444152
-0.001592587451
-0.0003297809318
0.0021172444
-0.001101655936
0.004968530644
-0.002151327383
0.006696142689
-0.003360924054
0.007571804949
-0.00465063437
0.007821689984
-0.005965695136
0.007598061347
-0.007263077972
0.006987065402
-0.008500237085
0.006025274882
-0.009626667023
0.004720268798
-0.01057825143
0.003071242892
-0.01127424405
0.001088551863
-0.01161780223
-0.001186641226
-0.01150129144
-0.003661049156
-0.01082020424
-0.006166470321
-0.009502707193
-0.008433200842
-0.007560360381
-0.0100737848
-0.00516069102
-0.01060089612
-0.002696012413
-0.009533801548
-0.00077411784
-0.006643338667
-0.002366705262
-0.0003199366156
0.002437181013
-0.00106668251
0.005715276582
-0.002080403543
0.00770986378
-0.003246771216
0.00873817269
-0.004492240558
0.009067159389
-0.005770786187
0.008876607022
-0.007050216707
0.008266495969
-0.008300438504
0.00727549676
-0.00948420033
0.005904030728
-0.0105498651
0.004136907763
-0.01142552522
0.001964212062
-0.01201407267
-0.0005980937041
-0.0121936829
-0.003481438847
-0.01182083912
-0.006539314006
-0.0107552322
-0.009498807684
-0.008913599738
-0.01191541718
-0.006370725812
-0.01314376998
-0.003498878084
-0.01240564922
-0.001063120011
-0.009079096681
-0.003429825245
-0.0003074256021
0.002744606648
-0.001006628549
0.006414479569
-0.001938417629
0.0086416529
-0.002991978081
0.009791733203
-0.00410290601
0.0101780874
-0.005237555699
0.01001125679
-0.006378751889
0.009407692212
-0.007514227878
0.008410972805
-0.008627496349
0.007017299292
-0.009690025028
0.005199436563
-0.01065332928
0.002927516432
-0.01143774797
0.000186325086
-0.01192960839
-0.002989578345
-0.01196509685
-0.00650382547
-0.01134378773
-0.01012011672
-0.009868959895
-0.01339024494
-0.007460068246
-0.01555266156
-0.004363783439
-0.01550193396
-0.001425510873
-0.01201736919
-0.004855336091
-0.0003089582158
0.00305356491
-0.0009556525573
0.007061173981
-0.001768634984
0.00945463537
-0.002639591454
0.01066268971
-0.003518513479
0.0110570095
-0.004390020178
0.01088276361
-0.005257059427
0.01027473156
-0.006129893947
0.009283807386
-0.007018119567
0.00790552497
-0.007923762279
0.006105079362
-0.008832657521
0.003836411787
-0.009704645338
0.001058313019
-0.0104511218
-0.002243101776
-0.01092445398
-0.006030493203
-0.01089527821
-0.01014929242
-0.01006504141
-0.01422048167
-0.008157369136
-0.01746033377
-0.005167634745
-0.01849166829
-0.001854337355
-0.01533066652
-0.006709673422
-0.0003553114972
0.003408876441
-0.0009734562522
0.007679318829
-0.001646274523
0.01012745372
-0.002269019218
0.01128543444
-0.002817231859
0.01160522215
-0.003304157149
0.01136968897
-0.003759932832
0.01073050738
-0.00422149516
0.009745369838
-0.004726750851
0.008410780745
-0.005310384888
0.006688713464
-0.005997279903
0.004523306876
-0.006792402583
0.001853435787
-0.007661148843
-0.001374355423
-0.008503526237
-0.005188115724
-0.009113582886
-0.009539235703
-0.009142799418
-0.01419126508
-0.008128571592
-0.01847456155
-0.005711222066
-0.02090901777
-0.002318291645
-0.0187235969
-0.009027965049
-0.0005004259631
0.003909302425
-0.001151446149
0.008330339074
-0.001675090932
0.01065109861
-0.001982030032
0.01159237365
-0.002096169908
0.01171936204
-0.002076322006
0.01134984106
-0.001989128978
0.0106433144
-0.001901849035
0.009658090012
-0.001879647168
0.008388579008
-0.001986693154
0.006795759558
-0.002283172863
0.004819786669
-0.002819429035
0.00238969203
-0.003622778071
-0.0005710063198
-0.004669403175
-0.004141490557
-0.005835109878
-0.008373528941
-0.00680803181
-0.0132183431
-0.007016913834
-0.01826567948
-0.005716520163
-0.0222094114
-0.002739594785
-0.02170052225
-0.01176755982
-0.0008309353243
0.004740237793
-0.001604990369
0.009104394114
-0.001951270319
0.01099737858
-0.001839809714
0.01148091321
-0.001385984198
0.01126553666
-0.000718779413
0.01068263631
4.749329609e-05
0.009877041688
0.0008156534325
0.008889929898
0.001494603432
0.007709629076
0.00199768531
0.006292677771
0.002237816127
0.004579655943
0.002127704921
0.002499803313
0.001582563665
-2.586500202e-05
0.0005445019074
-0.00310342875
-0.000984769024
-0.006844257969
-0.002828769132
-0.01137434296
-0.004459395385
-0.0166350532
-0.004810635278
-0.02185817149
-0.0029443345
-0.023566823
-0.01471189432
-0.00146572267
0.006205960544
-0.002380011655
0.01001868315
-0.002373706086
0.01099107289
-0.001603937123
0.01071114425
-0.0003501452801
0.01001174496
0.001163024962
0.009169466214
0.002771159518
0.00826890723
0.00434881853
0.007312270942
0.005790909311
0.00626753834
0.006997329645
0.005086257493
0.007864857427
0.003712128226
0.008281710198
0.002082950604
0.008123322154
0.0001325230936
0.007264064037
-0.002244170593
0.005584848487
-0.005165042391
0.003073581676
-0.00886307613
7.878057484e-05
-0.01364025208
-0.002445876407
-0.0193335145
-0.002601124029
-0.02341157537
-0.01731301835
-0.002365520247
0.008571480823
-0.002963882794
0.01061704597
-0.001922981732
0.009950171787
8.083564265e-05
0.008707326727
0.002534497876
0.007558082648
0.005139772085
0.006564192025
0.007719202229
0.005689477157
0.01015403343
0.004877439823
0.01234898152
0.00407259032
0.01421143601
0.003223803057
0.01564002341
0.002283540876
0.0165171385
0.001205835564
0.01669671121
-4.704957399e-05
0.01602680903
-0.001574268374
0.01430483578
-0.003443069123
0.01133263022
-0.005890870558
0.007055454424
-0.00936307628
0.00220152498
-0.01447958506
-0.001027363515
-0.02018268687
-0.01834038187
-0.00215033214
0.01072181285
-7.199482311e-05
0.008538708987
0.003741855581
0.006136321657
0.007719659287
0.004729523135
0.01156167307
0.003716068882
0.01514073105
0.002985134047
0.01839851076
0.002431697464
0.02130116771
0.001974782916
0.0238120314
0.001561726689
0.02587934529
0.001156489224
0.02743021497
0.0007326712574
0.02836442509
0.0002716254859
0.02857538096
-0.000258005408
0.02788748705
-0.0008863744403
0.02609921409
-0.001654796144
0.02290817618
-0.002699832646
0.01790689973
-0.004361799826
0.01076686368
-0.007339549001
0.002912161071
-0.01232798427
-0.0154282208
0.01072181273
0.01926052158
0.02539684319
0.03012636634
0.03384243526
0.03682756934
0.03925926683
0.04123404977
0.04279577649
0.04395226574
0.04468493702
0.04495656253
0.04469855713
0.0438121827
0.04215738655
0.03945755391
0.03509575408
0.02775620507
0.0154282208
)
;

boundaryField
{
    movingWall
    {
        type            calculated;
        value           uniform 0;
    }
    fixedWalls
    {
        type            calculated;
        value           uniform 0;
    }
    frontAndBack
    {
        type            empty;
    }
}


// ************************************************************************* //
