/*--------------------------------*- C++ -*----------------------------------*\
  =========                 |
  \\      /  F ield         | OpenFOAM: The Open Source CFD Toolbox
   \\    /   O peration     | Website:  https://openfoam.org
    \\  /    A nd           | Version:  13
     \\/     M anipulation  |
\*---------------------------------------------------------------------------*/
FoamFile
{
    format      ascii;
    class       volVectorField;
    location    "23";
    object      U_0;
}
// * * * * * * * * * * * * * * * * * * * * * * * * * * * * * * * * * * * * * //

dimensions      [0 1 -1 0 0 0 0];

internalField   nonuniform List<vector> 
400
(
(1.084120274e-05 -3.79126064e-05 0)
(-0.0006662228892 0.0004129977066 -1.541340407e-23)
(-0.00218522404 0.0009203003854 0)
(-0.004047442916 0.001312635957 0)
(-0.005971240875 0.001534892914 6.828710958e-25)
(-0.00776194835 0.001569671638 4.153337003e-24)
(-0.009283550687 0.001423407368 -7.320160078e-24)
(-0.01043484785 0.00111960581 7.585638588e-24)
(-0.01113569183 0.0006960159451 -2.099803086e-25)
(-0.0113260337 0.0002030653424 -4.001349025e-24)
(-0.01097081182 -0.0003001953955 5.810878593e-24)
(-0.01007154651 -0.0007474414785 -5.935456439e-23)
(-0.008679320647 -0.001075470953 -6.558874927e-23)
(-0.006902532439 -0.00123295917 -7.790907803e-23)
(-0.004910642939 -0.001192581802 4.577844834e-24)
(-0.002927317286 -0.0009619074433 -4.142475578e-24)
(-0.001205496406 -0.0005912456317 -2.001857875e-22)
(-1.928296879e-05 -0.0001699510906 0)
(0.000518000109 0.0001720027714 1.523359141e-25)
(0.0002227118793 0.0003059244062 -2.732182864e-24)
(-0.0002634078276 0.000828768083 1.390517532e-25)
(-0.0027030737 0.003383407297 1.550968753e-23)
(-0.006906482904 0.005603791759 1.539800773e-25)
(-0.01195086461 0.007007326811 -8.462410567e-25)
(-0.01713292523 0.007552843873 1.157234846e-24)
(-0.02197264882 0.007293331266 1.301480883e-23)
(-0.02610760274 0.006321188362 1.442238333e-24)
(-0.02926220773 0.004753724086 -7.335980066e-24)
(-0.03122320203 0.002736962543 1.017987028e-23)
(-0.03183858992 0.0004525023561 4.517741457e-24)
(-0.03102449105 -0.001883778192 -6.326784902e-24)
(-0.02879050236 -0.004022458397 2.960005296e-24)
(-0.02526929325 -0.005707670227 3.89866521e-23)
(-0.02073048515 -0.006706720491 -1.956927428e-24)
(-0.01558877053 -0.006853555702 3.758959884e-24)
(-0.01038479368 -0.006097074349 -9.756967417e-23)
(-0.005730293352 -0.004546039941 9.654030108e-23)
(-0.002233553591 -0.002507500593 -3.988715765e-25)
(-0.0001819471121 -0.0005025975379 4.089311785e-25)
(8.340986094e-05 0.0006097468025 0)
(-0.0004187798253 0.002934695813 -2.91753242e-25)
(-0.00464728797 0.008802855649 1.711630662e-23)
(-0.01137045152 0.01323866564 -8.189026453e-24)
(-0.01932470848 0.01578996662 -2.05933096e-25)
(-0.02747046972 0.01652788728 2.023077945e-25)
(-0.03511320045 0.01564251012 8.507175746e-27)
(-0.04170812886 0.0133584758 -1.273047006e-24)
(-0.04682993251 0.009918823149 -4.585580728e-25)
(-0.05014393831 0.005602121605 -1.06594292e-23)
(-0.05140648968 0.000744762223 0)
(-0.05047250938 -0.004240855275 0)
(-0.04733230419 -0.008885800419 2.674277779e-23)
(-0.04215536219 -0.01268010275 2.816204621e-23)
(-0.03531139728 -0.0151343241 -1.64840603e-24)
(-0.02738792865 -0.0158603352 4.853658653e-23)
(-0.01916887106 -0.0146721494 9.434794766e-23)
(-0.01156037918 -0.01169291085 3.99249035e-23)
(-0.005465292666 -0.007450566512 4.197360039e-25)
(-0.001451149511 -0.002936248941 1.044873687e-25)
(-9.072772986e-05 0.0002256157301 0)
(-0.0005023900131 0.006044542174 -4.257482391e-23)
(-0.006401840797 0.01636852447 -1.701837548e-23)
(-0.01553284917 0.02355613169 8.115921753e-24)
(-0.02627548739 0.02743796498 0)
(-0.03728240534 0.0283173763 0)
(-0.04768405069 0.02658449467 0)
(-0.05678931255 0.02262870122 -4.64541993e-26)
(-0.06404586342 0.01683454118 -2.105023502e-24)
(-0.069002548 0.009621706242 0)
(-0.07130011327 0.001491667954 1.643482007e-24)
(-0.07070083195 -0.006934896522 2.807873777e-25)
(-0.06712346008 -0.01492777986 -2.815735751e-25)
(-0.06069314501 -0.02166435197 0)
(-0.05180278033 -0.02631295053 4.140826107e-23)
(-0.04114643381 -0.02815779272 -4.689148147e-23)
(-0.02971739988 -0.02677133844 -2.770571702e-23)
(-0.01873586856 -0.02221370229 -3.97790971e-23)
(-0.009487463453 -0.0152184843 7.794869834e-25)
(-0.002976755074 -0.007298175459 9.77066111e-23)
(-0.0002318641449 -0.0008664208069 0)
(-0.0005315300249 0.01009362917 4.278197475e-23)
(-0.007982461847 0.02594861092 4.770005481e-25)
(-0.01939417796 0.03642385868 -4.661060502e-25)
(-0.03281935582 0.04184964854 0)
(-0.04664069268 0.04288939712 7.765959196e-25)
(-0.05984456833 0.04019595362 -7.658281062e-25)
(-0.07162396199 0.03434373069 3.666295903e-23)
(-0.08131771541 0.02585435347 1.841830861e-23)
(-0.0883557846 0.01527225502 6.220568121e-24)
(-0.09224447229 0.003246996553 -1.645396681e-24)
(-0.09259399272 -0.009405514888 0)
(-0.08916654371 -0.02167124997 4.382063204e-25)
(-0.08195189603 -0.03236307974 1.013078795e-23)
(-0.07126231235 -0.040207755 -4.357350601e-23)
(-0.05781513571 -0.04401585761 1.937994052e-24)
(-0.04278227568 -0.04294433264 4.234493034e-23)
(-0.02775231663 -0.03683055831 -3.869550331e-25)
(-0.01454953646 -0.02652554984 0)
(-0.004859124195 -0.01408403053 5.435661716e-23)
(-0.0003641114622 -0.002847080227 -2.562891157e-22)
(-0.0005271455036 0.01499720625 9.831302556e-23)
(-0.009376670779 0.03738509657 -4.900130049e-25)
(-0.02287883065 0.05169528622 0)
(-0.03882546733 0.05893417735 0)
(-0.05537967299 0.06024830455 -8.725982316e-23)
(-0.07142015266 0.05661251235 -8.492738432e-23)
(-0.08605652875 0.04879668046 -4.060950525e-23)
(-0.09853983977 0.03743666056 -1.501178165e-23)
(-0.1081829332 0.02315875768 -5.352691629e-24)
(-0.1143327429 0.006710690661 -8.16452555e-24)
(-0.1163931979 -0.01092994747 6.589674209e-24)
(-0.1138830388 -0.02848480761 8.805202938e-24)
(-0.1065390945 -0.04436458982 -1.891785645e-23)
(-0.09445985055 -0.05674680065 4.516567985e-24)
(-0.07826202097 -0.06377644026 0)
(-0.05922415518 -0.06392907766 -1.582012891e-23)
(-0.03933671828 -0.05653355694 -2.134660491e-26)
(-0.02114025387 -0.04235513821 0)
(-0.007318141366 -0.02398100718 -1.518565263e-22)
(-0.0005215591143 -0.00592544147 6.051753672e-22)
(-0.0004990274209 0.02064295296 -9.764349489e-23)
(-0.01052826061 0.05044765375 2.830740932e-22)
(-0.02582655701 0.06911613793 1.52622297e-22)
(-0.04401635008 0.07848277693 3.617282416e-24)
(-0.06310037345 0.0802852891 -7.318197153e-23)
(-0.08189524286 0.07587216964 9.036764718e-23)
(-0.09946734656 0.06621051455 -3.587950384e-24)
(-0.11501134 0.05201286134 -1.727858022e-24)
(-0.1277398233 0.03392203398 2.522162941e-24)
(-0.1368348937 0.01270336488 7.372839106e-24)
(-0.1414588402 -0.01058433993 -6.490036672e-24)
(-0.1408131755 -0.03445462262 -9.764475644e-24)
(-0.1342639186 -0.05692043245 -3.261392309e-23)
(-0.1215356756 -0.07552484437 -3.646513244e-23)
(-0.1029595576 -0.0875340177 5.615419768e-25)
(-0.07975784718 -0.09038408256 0)
(-0.05426289369 -0.0824385193 0)
(-0.02986944931 -0.06397277733 -2.902653434e-24)
(-0.01066206688 -0.03798560909 2.967027034e-24)
(-0.0007350186559 -0.0105004407 1.027734688e-22)
(-0.0004478935437 0.02686904004 0)
(-0.01134813093 0.06479934003 2.001728593e-22)
(-0.02801327483 0.08828527336 8.961155462e-23)
(-0.04799397246 0.1001116634 0)
(-0.06919954612 0.1026962568 1.569175232e-22)
(-0.09043555229 0.09780585212 0)
(-0.1107735566 0.08660330126 -1.427860715e-22)
(-0.1293986682 0.06983446529 6.512628206e-24)
(-0.1454657219 0.04808023356 0)
(-0.1580233767 0.02201847109 0)
(-0.1660015503 -0.007330654889 -1.373517781e-24)
(-0.1682557313 -0.03838204575 -9.307782749e-25)
(-0.1636957687 -0.06883132099 1.490798866e-22)
(-0.1515112553 -0.09557288147 -4.704027151e-23)
(-0.1315052615 -0.1148193662 -2.557443515e-24)
(-0.1045531478 -0.1225601797 1.53131257e-24)
(-0.07308897442 -0.1155430073 -1.555467942e-24)
(-0.04134761808 -0.09282466981 0)
(-0.01525130994 -0.05740404027 3.20188413e-24)
(-0.001044216786 -0.01714622237 -1.012406999e-21)
(-0.0003744835724 0.03345902021 0)
(-0.01174924873 0.07997970097 -1.127694518e-22)
(-0.02920497361 0.1086265795 -6.189524465e-22)
(-0.05031379395 0.1232098468 -3.754389829e-22)
(-0.07295794473 0.1268966689 0)
(-0.09598292737 0.1219142052 4.118342634e-22)
(-0.1185194581 0.1096259944 1.260458866e-22)
(-0.1398058183 0.09077659548 -5.579905595e-24)
(-0.1590126965 0.06581133899 5.552288062e-24)
(-0.1751362982 0.0352095344 0)
(-0.1869461164 -0.0001928507999 2.911176918e-23)
(-0.1930075535 -0.03889077617 4.693661843e-24)
(-0.1917716991 -0.07842970882 -1.07615191e-22)
(-0.1817788296 -0.1151755644 7.998001407e-23)
(-0.1620494085 -0.1442479634 -2.418344781e-22)
(-0.1326998833 -0.1598428576 0)
(-0.09577420922 -0.1563004372 0)
(-0.05601348974 -0.1302896465 0)
(-0.02147743363 -0.0838062462 0)
(-0.001500275559 -0.02665366601 5.569530717e-22)
(-0.0002874508319 0.04015639964 0)
(-0.01169319504 0.09542578474 -3.492176556e-22)
(-0.02924317875 0.129393715 8.93089916e-22)
(-0.05060722668 0.1469151341 3.616292469e-22)
(-0.07369748611 0.1519606618 0)
(-0.09744716162 0.1472634335 -3.861511302e-22)
(-0.1211018031 0.1344095449 -3.173622582e-23)
(-0.1440266895 0.114132924 3.332326756e-22)
(-0.1655081496 0.08669714298 1.769055059e-22)
(-0.1846184854 0.05229180295 -4.059194833e-23)
(-0.200126162 0.01142104012 1.656662464e-23)
(-0.2104558657 -0.0347073821 -8.262653225e-24)
(-0.2137145788 -0.08375623464 3.370948966e-22)
(-0.2078154595 -0.1318642302 0)
(-0.1908181022 -0.1732628815 2.419513128e-22)
(-0.1616284348 -0.2002461659 5.770509287e-24)
(-0.1211621292 -0.2039997354 -5.856564671e-24)
(-0.07384714697 -0.1772017563 1.547069462e-22)
(-0.02971663656 -0.1188576306 -5.431324993e-24)
(-0.002179421762 -0.04005183949 0)
(-0.0002118228655 0.04671192918 0)
(-0.01125010249 0.1105391653 0)
(-0.02815614952 0.1497213486 -5.021772501e-22)
(-0.04874430805 0.1701363894 -1.880652968e-23)
(-0.07099991087 0.1766109513 2.037975013e-23)
(-0.09399312377 0.1724398484 -2.013912275e-23)
(-0.1171417222 0.1594771683 -2.316396509e-23)
(-0.1400160817 0.1384739735 -3.029112053e-22)
(-0.1621310023 0.1095131257 6.698140869e-23)
(-0.1827940869 0.07245244282 4.512097147e-23)
(-0.2009818145 0.02735311792 -4.576605485e-23)
(-0.215225286 -0.02508027349 0)
(-0.2235543391 -0.08297439389 -7.835700443e-23)
(-0.2234610416 -0.1427146517 0)
(-0.2120653975 -0.1981695485 -3.738635246e-22)
(-0.1867406386 -0.2400640315 5.243280042e-22)
(-0.1464410736 -0.2560642005 0)
(-0.09394349787 -0.2331095006 -1.492657141e-22)
(-0.04021886112 -0.163953461 1.936169177e-22)
(-0.003200969188 -0.05860781564 -3.410154229e-22)
(-0.0002016793931 0.05297157876 0)
(-0.01067323358 0.1248068742 9.181562728e-22)
(-0.02628557793 0.1687285241 -2.440309605e-23)
(-0.04501253446 0.1916302927 9.192004279e-22)
(-0.064947666 0.199277485 -2.511682311e-23)
(-0.08536818171 0.1955978275 2.838357353e-23)
(-0.1059327058 0.1827790362 -2.812447855e-23)
(-0.1264948743 0.1616521646 -1.660629881e-23)
(-0.146902505 0.1321736306 -5.259332939e-22)
(-0.1668489834 0.09389728104 -8.905103739e-24)
(-0.1857337016 0.04640960676 9.658596571e-24)
(-0.2024816056 -0.0102314701 3.312613262e-22)
(-0.215418618 -0.07498975702 -5.819787768e-22)
(-0.2220234672 -0.14502109 0)
(-0.2188047369 -0.2146646517 8.885556547e-22)
(-0.2016261603 -0.2739892775 -4.939313605e-22)
(-0.1668633523 -0.3075685161 -1.571719492e-23)
(-0.114020957 -0.2953694679 0)
(-0.05288397908 -0.219571532 -1.888826106e-22)
(-0.004749063384 -0.08376937555 3.359235842e-22)
(-0.0003643629781 0.05901939552 1.550801531e-23)
(-0.01049685209 0.1379786799 -8.762950714e-22)
(-0.02441618343 0.1856674388 -1.15691909e-21)
(-0.04027062099 0.2101241636 -8.627735302e-22)
(-0.05631161636 0.218221121 0)
(-0.07215371363 0.2146072403 3.513297158e-23)
(-0.08779811632 0.201870345 -7.293809362e-23)
(-0.1034628824 0.1809951349 5.867037359e-23)
(-0.1194056294 0.1518977784 3.020897351e-22)
(-0.1358009155 0.1139163213 -1.128039625e-23)
(-0.1526163176 0.0662182196 0)
(-0.1694602304 0.008183266658 -3.603417139e-22)
(-0.1852837673 -0.06015226575 7.514758539e-22)
(-0.1980517305 -0.1372659779 8.830756868e-22)
(-0.2043601911 -0.2189165678 -5.295736301e-22)
(-0.1991016299 -0.2959608561 5.161923858e-22)
(-0.1760625888 -0.3513962112 1.077785285e-23)
(-0.1300895857 -0.3584042351 -1.095093139e-23)
(-0.06688775403 -0.2843188714 -8.227673371e-23)
(-0.007083226358 -0.1169926575 0)
(-0.0009097570215 0.06539738216 -1.911268135e-23)
(-0.01167744813 0.1502736268 -1.326829822e-21)
(-0.02389212865 0.200054643 1.094105773e-21)
(-0.03601847499 0.224409002 6.734223753e-22)
(-0.04657973867 0.2316465394 6.013985374e-22)
(-0.05577839239 0.2272289115 6.643214529e-22)
(-0.06412158711 0.214169797 -4.4581317e-23)
(-0.07228566181 0.1936449996 -3.460953539e-22)
(-0.08098048093 0.1656016468 2.151931003e-22)
(-0.09088313732 0.1292724819 0)
(-0.1025661618 0.0835349284 0)
(-0.1163735196 0.02720588185 2.655173104e-22)
(-0.1321697858 -0.04061328239 8.194889038e-23)
(-0.1489351614 -0.1200055363 -2.821165841e-22)
(-0.1641369687 -0.2089224483 -5.410766876e-23)
(-0.1727944237 -0.3006912271 1.302039198e-22)
(-0.167035582 -0.3793243063 -3.399868785e-22)
(-0.1365314456 -0.4136362934 -1.599435405e-23)
(-0.08018297259 -0.35382471 8.216429165e-23)
(-0.01050759561 -0.1594092285 -6.033121835e-22)
(-0.002260677851 0.07348674567 0)
(-0.01580536499 0.1626460643 2.145669221e-21)
(-0.02665446055 0.2117813892 0)
(-0.0342297223 0.2333842297 -1.351679405e-21)
(-0.03760239258 0.237766377 6.184583217e-23)
(-0.03800700735 0.2312465599 -6.192399062e-22)
(-0.03669413764 0.2171835081 -4.755810435e-22)
(-0.0349027855 0.1968900068 8.300391137e-22)
(-0.03380138081 0.1703336652 -1.885493537e-22)
(-0.03451195853 0.1367241086 0)
(-0.03812880178 0.0948007476 0)
(-0.04566258768 0.04304819396 2.41089831e-23)
(-0.05792004599 -0.02013184595 -6.006736923e-22)
(-0.07515704174 -0.09620048622 -4.309232117e-22)
(-0.09646151058 -0.1855497952 4.637599976e-22)
(-0.1183542979 -0.2853510702 -6.488065659e-22)
(-0.1332774784 -0.383832685 9.117962489e-23)
(-0.1265386017 -0.4504295615 2.943215327e-23)
(-0.08899275108 -0.419847422 5.660814581e-22)
(-0.01526924771 -0.2111685259 6.021752764e-22)
(-0.005181053445 0.08597940805 0)
(-0.02525735898 0.1766251617 1.465623524e-22)
(-0.03483835908 0.2205896653 -4.916763622e-23)
(-0.036407001 0.2354780269 7.642270321e-22)
(-0.03019407732 0.2343326757 -7.004740731e-22)
(-0.01917703139 0.2241534525 4.746053571e-23)
(-0.005627715609 0.208347537 -1.01856405e-22)
(0.008556176537 0.1881213969 -3.389556946e-22)
(0.0217849991 0.1633908062 2.06265374e-22)
(0.03261411812 0.1333261037 0)
(0.03957140745 0.09664436258 0)
(0.04115775795 0.05174511104 -2.902471499e-22)
(0.03577336282 -0.003250475375 0)
(0.02197141144 -0.07057877968 -5.51194904e-22)
(-0.0012740638 -0.1525691838 -1.491626312e-23)
(-0.03311245738 -0.2505911089 2.559517753e-23)
(-0.06909855573 -0.3599304142 2.202715731e-22)
(-0.09228232762 -0.4575388078 4.790209019e-24)
(-0.08718254997 -0.4698088587 -5.789812982e-22)
(-0.02103144382 -0.269894565 0)
(-0.0111163968 0.1085974023 0)
(-0.04249053188 0.1947132984 -8.847884231e-22)
(-0.04795903696 0.2258156792 -5.410759048e-22)
(-0.03920161024 0.2282083197 4.543561289e-22)
(-0.01878694996 0.2182272075 -1.710164741e-24)
(0.007653643265 0.2028169718 -4.560722212e-23)
(0.03666784659 0.184758191 5.696205418e-22)
(0.0658170731 0.1647096249 -2.766668176e-23)
(0.09325814766 0.1423124349 -2.069609993e-22)
(0.1173763267 0.116628779 3.141990519e-23)
(0.1365340667 0.08641405418 -3.42570367e-23)
(0.1489558224 0.05018016721 -3.690408205e-23)
(0.152517685 0.006162995289 3.205488779e-22)
(0.1449280874 -0.04795760015 6.119345238e-22)
(0.123508548 -0.1153021528 -5.10096072e-22)
(0.08632920935 -0.2004171022 -1.615963199e-22)
(0.03198553904 -0.3067787557 1.53136591e-22)
(-0.02362505839 -0.4239818001 7.293793055e-23)
(-0.06492568751 -0.4871591017 1.913305055e-21)
(-0.02509993121 -0.3291527714 2.955006695e-21)
(-0.02004674925 0.1460732488 -4.390040717e-23)
(-0.06416475826 0.2112952659 4.41721242e-23)
(-0.05070453969 0.2177283517 1.000143944e-21)
(-0.01934516053 0.2014651504 -8.265826974e-24)
(0.02413838128 0.1809042305 0)
(0.07153303797 0.1606900591 4.363416668e-23)
(0.1190607052 0.1416469339 -2.273678607e-22)
(0.1644661848 0.1233165454 -9.0272393e-23)
(0.206214229 0.1048112533 3.68044262e-23)
(0.2429536477 0.08507204449 -1.701536761e-23)
(0.2732108027 0.0629630453 3.429756726e-23)
(0.2952447361 0.03726512431 -6.592326729e-23)
(0.3066893822 0.006537516505 -9.303476545e-23)
(0.3049673195 -0.03087534273 1.516982991e-22)
(0.2863883281 -0.07786095386 0)
(0.2470525891 -0.1399286861 1.505508493e-22)
(0.1810888081 -0.2266293611 2.560007542e-22)
(0.09604195108 -0.3443887409 0)
(-0.006698920689 -0.4552202178 -3.675654491e-21)
(-0.01922429557 -0.3777530144 -2.892635524e-21)
(-0.02591935721 0.2276834147 -9.514102283e-22)
(-0.03998299739 0.2238220217 -1.388936787e-22)
(0.03656109311 0.1810582111 -2.3354718e-22)
(0.109048905 0.1451048927 -1.193680453e-22)
(0.18171624 0.1172430858 -4.295631574e-23)
(0.249004623 0.09627752684 9.782482172e-23)
(0.3100278522 0.08002378132 -1.408480708e-22)
(0.364614128 0.06656726829 1.2970724e-22)
(0.4126179332 0.05449146301 -8.619442119e-23)
(0.4536177132 0.04270918773 1.132169826e-25)
(0.4867810092 0.03032369711 1.527650303e-23)
(0.5107390772 0.01653005116 7.996770135e-23)
(0.5236547479 0.0005376121823 -1.81104079e-22)
(0.5231759932 -0.01863266505 -1.617084876e-22)
(0.5052295445 -0.04286392837 -4.262655443e-23)
(0.4658695402 -0.07633177158 0)
(0.3952682247 -0.1286087694 -1.846502907e-22)
(0.2916060315 -0.2208467616 8.148785709e-22)
(0.1197448602 -0.3525016457 1.631605738e-21)
(0.02670530808 -0.3775497008 2.172657786e-21)
(0.2142896098 0.1347448815 9.864875812e-22)
(0.2776316266 0.0987052424 0)
(0.4316597962 0.05810424543 -2.594235828e-22)
(0.5304751705 0.03846261682 -1.741594351e-22)
(0.6016961458 0.02623406118 0)
(0.6571186448 0.01831907019 -6.008660956e-23)
(0.7015193336 0.01313586757 6.377467415e-23)
(0.7376016421 0.009542049429 -1.799991806e-23)
(0.7669339316 0.006804473892 2.88571951e-23)
(0.7902077659 0.004464841157 2.314848324e-23)
(0.8074528871 0.002221486006 0)
(0.8182600149 -0.0001498664048 -2.872864304e-23)
(0.8216484627 -0.002723629424 0)
(0.816238545 -0.005712503728 2.737966372e-23)
(0.7991329433 -0.009611285844 1.421584844e-23)
(0.767998598 -0.01500252516 -5.799484765e-23)
(0.7106556675 -0.02502524273 -2.535675135e-22)
(0.6235184569 -0.04204290483 -6.918119143e-22)
(0.4230090957 -0.09182973336 0)
(0.2705674532 -0.1524022079 -2.119485605e-21)
)
;

boundaryField
{
    movingWall
    {
        type            calculated;
        value           uniform (1 0 0);
    }
    fixedWalls
    {
        type            calculated;
        value           uniform (0 0 0);
    }
    frontAndBack
    {
        type            empty;
    }
}


// ************************************************************************* //
