/*--------------------------------*- C++ -*----------------------------------*\
  =========                 |
  \\      /  F ield         | OpenFOAM: The Open Source CFD Toolbox
   \\    /   O peration     | Website:  https://openfoam.org
    \\  /    A nd           | Version:  13
     \\/     M anipulation  |
\*---------------------------------------------------------------------------*/
FoamFile
{
    format      ascii;
    class       vectorField;
    location    "23";
    object      U_all;
}
// * * * * * * * * * * * * * * * * * * * * * * * * * * * * * * * * * * * * * //


400
(
(1.084159275e-05 -3.791252678e-05 0)
(-0.0006662225639 0.000412997682 -1.541343849e-23)
(-0.002185224926 0.0009203009098 0)
(-0.004047445286 0.001312637352 0)
(-0.005971243786 0.001534894439 6.828514845e-25)
(-0.00776195095 0.001569672153 4.153495235e-24)
(-0.009283553409 0.00142340655 -7.320704485e-24)
(-0.0104348518 0.001119604502 7.585289896e-24)
(-0.01113569744 0.0006960153557 -2.099712221e-25)
(-0.01132604009 0.0002030659624 -4.001231438e-24)
(-0.01097081739 -0.0003001940846 5.81082702e-24)
(-0.01007155011 -0.0007474404429 -5.935529197e-23)
(-0.008679322153 -0.00107547083 -6.558926388e-23)
(-0.006902532565 -0.001232959873 -7.790914331e-23)
(-0.004910642572 -0.001192582727 4.577813546e-24)
(-0.002927316906 -0.0009619079957 -4.142430482e-24)
(-0.001205496005 -0.0005912456087 -2.001835881e-22)
(-1.928248663e-05 -0.0001699506788 0)
(0.0005180005366 0.0001720032735 1.523344918e-25)
(0.0002227119801 0.0003059247172 -2.732037017e-24)
(-0.0002634078899 0.0008287687076 1.390524026e-25)
(-0.002703074642 0.003383408522 1.550970642e-23)
(-0.006906485657 0.005603794003 1.539867225e-25)
(-0.01195087086 0.007007330869 -8.462893389e-25)
(-0.01713293551 0.007552849329 1.157275131e-24)
(-0.02197266175 0.007293336251 1.301404626e-23)
(-0.02610761635 0.006321191084 1.442927495e-24)
(-0.02926222099 0.004753724254 -7.335571228e-24)
(-0.03122321521 0.002736961342 1.018002141e-23)
(-0.03183860359 0.0004525011959 4.517600416e-24)
(-0.03102450488 -0.001883778968 -6.326722154e-24)
(-0.02879051507 -0.004022459279 2.960538346e-24)
(-0.02526930327 -0.00570767193 3.898735139e-23)
(-0.02073049158 -0.006706723153 -1.956941169e-24)
(-0.01558877359 -0.006853558676 3.758977391e-24)
(-0.01038479442 -0.006097076653 -9.756958299e-23)
(-0.005730292932 -0.004546040911 9.653922622e-23)
(-0.002233552893 -0.002507500232 -3.988585625e-25)
(-0.000181946675 -0.0005025964003 4.089178162e-25)
(8.340979746e-05 0.0006097477165 0)
(-0.0004187804198 0.00293469779 -2.917556749e-25)
(-0.004647291106 0.008802860838 1.711648733e-23)
(-0.01137045758 0.01323867214 -8.187767739e-24)
(-0.01932471839 0.01578997393 -2.059611898e-25)
(-0.02747048472 0.01652789575 2.023353245e-25)
(-0.03511322065 0.01564251936 8.485007386e-27)
(-0.04170815285 0.01335848412 -1.273697221e-24)
(-0.04682995799 0.009918828409 -4.585774815e-25)
(-0.05014396332 0.005602122614 -1.065957757e-23)
(-0.05140651337 0.0007447593747 0)
(-0.05047253142 -0.004240860581 0)
(-0.04733232412 -0.008885806836 2.674236401e-23)
(-0.04215537929 -0.01268010945 2.816190872e-23)
(-0.03531141061 -0.0151343307 -1.648400861e-24)
(-0.02738793767 -0.01586034132 4.853639773e-23)
(-0.01916887604 -0.01467215441 9.43478613e-23)
(-0.01156038114 -0.011692914 3.9924611e-23)
(-0.005465292962 -0.007450567456 4.197175054e-25)
(-0.001451149323 -0.002936248103 1.044987726e-25)
(-9.072782353e-05 0.0002256169207 0)
(-0.0005023905544 0.006044545493 -4.257401682e-23)
(-0.006401845392 0.01636853501 -1.701853197e-23)
(-0.01553285929 0.02355614608 8.114651615e-24)
(-0.02627550269 0.02743797998 0)
(-0.03728242595 0.02831739025 0)
(-0.04768407679 0.02658450713 0)
(-0.05678934369 0.02262871179 -4.642589578e-26)
(-0.06404589812 0.01683454881 -2.105395807e-24)
(-0.06900258398 0.009621709467 0)
(-0.07130014824 0.001491665823 1.643489728e-24)
(-0.0707008643 -0.006934903667 2.807884847e-25)
(-0.06712348893 -0.01492779079 -2.815746863e-25)
(-0.06069316974 -0.02166436492 0)
(-0.05180280044 -0.0263129638 4.140788036e-23)
(-0.04114644889 -0.02815780487 -4.689129781e-23)
(-0.02971740989 -0.02677134831 -2.770543949e-23)
(-0.01873587411 -0.02221370901 -3.977879722e-23)
(-0.009487465733 -0.01521848749 7.794896268e-25)
(-0.002976755514 -0.007298175621 9.770725372e-23)
(-0.000231864213 -0.0008664197277 0)
(-0.000531530028 0.01009363405 4.278116137e-23)
(-0.007982466354 0.02594862591 4.770276157e-25)
(-0.01939419021 0.03642388076 -4.661324073e-25)
(-0.03281937565 0.04184967322 0)
(-0.04664071922 0.04288942047 7.765786676e-25)
(-0.05984460067 0.04019597316 -7.658111398e-25)
(-0.07162399934 0.03434374526 3.666291912e-23)
(-0.08131775674 0.02585436262 1.841883941e-23)
(-0.08835582831 0.01527225834 6.220710198e-24)
(-0.09224451623 0.003246993567 -1.645404416e-24)
(-0.0925940347 -0.009405524247 0)
(-0.08916658196 -0.02167126488 4.382062508e-25)
(-0.08195192931 -0.03236309852 1.013072685e-23)
(-0.0712623399 -0.04020777541 -4.35731099e-23)
(-0.05781515711 -0.04401587726 1.937973431e-24)
(-0.04278229087 -0.0429443494 4.23443281e-23)
(-0.02775232603 -0.03683057057 -3.86945308e-25)
(-0.01454954109 -0.02652555684 0)
(-0.004859125575 -0.01408403275 5.435660946e-23)
(-0.0003641115919 -0.002847079707 -2.562898544e-22)
(-0.0005271453412 0.01499721469 9.83120296e-23)
(-0.009376675299 0.03738511709 -4.900088951e-25)
(-0.02287884312 0.05169531516 0)
(-0.03882548887 0.05893421027 0)
(-0.05537970293 0.06024833697 -8.726020897e-23)
(-0.07142018962 0.05661254043 -8.492744585e-23)
(-0.08605657115 0.04879670154 -4.060946753e-23)
(-0.09853988616 0.03743667331 -1.501197138e-23)
(-0.1081829821 0.02315876177 -5.352819972e-24)
(-0.1143327928 0.006710686263 -8.164576971e-24)
(-0.1163932466 -0.01092995989 6.589726742e-24)
(-0.1138830845 -0.02848482707 8.805275248e-24)
(-0.1065391353 -0.04436461466 -1.891791372e-23)
(-0.09445988523 -0.05674682845 4.516800389e-24)
(-0.07826204867 -0.06377646814 0)
(-0.05922417552 -0.06392910265 -1.581978699e-23)
(-0.03933673149 -0.05653357647 -2.135694318e-26)
(-0.02114026085 -0.04235515071 0)
(-0.007318143738 -0.02398101265 -1.518571681e-22)
(-0.0005215593371 -0.005925441928 6.051768788e-22)
(-0.0004990276286 0.02064296564 -9.764250504e-23)
(-0.01052826579 0.05044768204 2.830734221e-22)
(-0.02582656925 0.06911617519 1.526221726e-22)
(-0.04401637115 0.07848281792 3.617300093e-24)
(-0.06310040339 0.0802853293 -7.318207499e-23)
(-0.08189528067 0.07587220512 9.036770721e-23)
(-0.0994673906 0.0662105421 -3.587957367e-24)
(-0.1150113884 0.05201287876 -1.727858831e-24)
(-0.1277398745 0.03392204031 2.522165489e-24)
(-0.136834946 0.01270336021 7.372888855e-24)
(-0.1414588921 -0.01058435483 -6.49008692e-24)
(-0.140813225 -0.03445464643 -9.764555748e-24)
(-0.134263964 -0.05692046329 -3.261397394e-23)
(-0.1215357153 -0.07552487964 -3.646554195e-23)
(-0.1029595902 -0.08753405416 5.615509179e-25)
(-0.07975787198 -0.0903841166 0)
(-0.05426291038 -0.08243854739 0)
(-0.02986945851 -0.06397279679 -2.902664472e-24)
(-0.01066207022 -0.03798561899 2.967038316e-24)
(-0.0007350189659 -0.01050044264 1.027735128e-22)
(-0.000447893946 0.02686905536 0)
(-0.01134813609 0.06479937568 2.001739324e-22)
(-0.02801328635 0.08828531966 8.961163164e-23)
(-0.04799399169 0.1001117131 0)
(-0.06919957334 0.1026963047 1.569179952e-22)
(-0.090435587 0.0978058941 0)
(-0.1107735977 0.08660333421 -1.427863232e-22)
(-0.1293987139 0.0698344869 6.512639706e-24)
(-0.1454657705 0.04808024248 0)
(-0.1580234268 0.02201846708 0)
(-0.1660016003 -0.007330671091 -1.373521125e-24)
(-0.1682557798 -0.03838207275 -9.30781591e-25)
(-0.1636958142 -0.06883135678 1.490803105e-22)
(-0.1515112961 -0.09557292336 -4.704031222e-23)
(-0.1315052963 -0.1148194108 -2.557454619e-24)
(-0.1045531752 -0.1225602229 1.531324225e-24)
(-0.0730889936 -0.1155430446 -1.55547978e-24)
(-0.04134762912 -0.09282469732 0)
(-0.01525131418 -0.05740405567 3.201890594e-24)
(-0.001044217188 -0.01714622627 -1.012408705e-21)
(-0.0003744836405 0.03345903698 0)
(-0.01174925246 0.07997974161 -1.127693196e-22)
(-0.02920498288 0.1086266331 -6.18952728e-22)
(-0.05031380956 0.1232099045 -3.754391568e-22)
(-0.0729579668 0.126896724 0)
(-0.09598295551 0.1219142531 4.118345682e-22)
(-0.1185194916 0.1096260319 1.260461139e-22)
(-0.1398058559 0.09077662042 -5.579912939e-24)
(-0.1590127369 0.0658113501 5.552295369e-24)
(-0.1751363398 0.03520953131 0)
(-0.1869461583 -0.0001928674639 2.911179958e-23)
(-0.1930075946 -0.03889080499 4.693670369e-24)
(-0.1917717385 -0.07842974776 -1.076154384e-22)
(-0.1817788662 -0.1151756109 7.9980225e-23)
(-0.1620494409 -0.1442480142 -2.418349729e-22)
(-0.1326999101 -0.1598429085 0)
(-0.095774229 -0.1563004833 0)
(-0.05601350177 -0.1302896824 0)
(-0.02147743856 -0.08380626786 0)
(-0.001500276034 -0.02665367235 5.56953954e-22)
(-0.0002874504528 0.04015641776 0)
(-0.01169319658 0.09542582833 -3.492181786e-22)
(-0.02924318401 0.129393773 8.930907402e-22)
(-0.05060723644 0.1469151971 3.616294075e-22)
(-0.07369750042 0.1519607222 0)
(-0.09744718002 0.1472634858 -3.861514109e-22)
(-0.1211018249 0.1344095855 -3.173625353e-23)
(-0.144026714 0.1141329511 3.332329898e-22)
(-0.1655081759 0.08669715547 1.769056903e-22)
(-0.1846185126 0.05229180064 -4.059198512e-23)
(-0.2001261893 0.01142102361 1.656663099e-23)
(-0.2104558927 -0.03470741136 -8.262662869e-24)
(-0.2137146054 -0.08375627465 3.370952284e-22)
(-0.2078154853 -0.1318642787 0)
(-0.1908181266 -0.1732629354 2.419518079e-22)
(-0.1616284567 -0.2002462218 5.770523572e-24)
(-0.1211621467 -0.2039997881 -5.856579167e-24)
(-0.07384715861 -0.1772017998 1.547074106e-22)
(-0.02971664176 -0.1188576586 -5.431339012e-24)
(-0.00217942228 -0.04005184861 0)
(-0.0002118223109 0.04671194816 0)
(-0.01125010188 0.1105392102 0)
(-0.02815614978 0.1497214084 -5.021777266e-22)
(-0.04874431013 0.1701364546 -1.880654544e-23)
(-0.07099991511 0.1766110142 2.037976347e-23)
(-0.09399312985 0.1724399029 -2.013913593e-23)
(-0.1171417294 0.1594772103 -2.316398037e-23)
(-0.1400160894 0.1384740009 -3.029114977e-22)
(-0.1621310102 0.109513138 6.698141582e-23)
(-0.1827940948 0.07245244049 4.512101285e-23)
(-0.200981822 0.0273531018 -4.576609168e-23)
(-0.2152252934 -0.02508030194 0)
(-0.223554347 -0.08297443271 -7.835716142e-23)
(-0.2234610507 -0.1427146988 0)
(-0.2120654083 -0.1981696018 -3.738638724e-22)
(-0.1867406506 -0.2400640881 5.24328639e-22)
(-0.1464410853 -0.2560642562 0)
(-0.09394350713 -0.2331095491 -1.492661644e-22)
(-0.04021886599 -0.1639534945 1.93617392e-22)
(-0.003200969736 -0.05860782759 -3.410158977e-22)
(-0.0002016788354 0.05297159715 0)
(-0.010673231 0.1248069182 9.181566436e-22)
(-0.02628557309 0.1687285831 -2.440310472e-23)
(-0.04501252809 0.1916303571 9.19200818e-22)
(-0.06494765876 0.199277547 -2.511684059e-23)
(-0.08536817389 0.1955978812 2.83835907e-23)
(-0.105932697 0.1827790773 -2.812449556e-23)
(-0.1264948638 0.1616521907 -1.660630773e-23)
(-0.1469024928 0.1321736413 -5.259336125e-22)
(-0.1668489698 0.09389727736 -8.905109983e-24)
(-0.1857336873 0.04640959047 9.658603273e-24)
(-0.2024815912 -0.01023149703 3.312615202e-22)
(-0.2154186047 -0.07498979279 -5.819791192e-22)
(-0.2220234565 -0.1450211329 0)
(-0.2188047304 -0.2146647001 8.885562966e-22)
(-0.2016261585 -0.27398933 -4.939319568e-22)
(-0.1668633547 -0.3075685699 -1.571721367e-23)
(-0.1140209615 -0.2953695177 0)
(-0.05288398266 -0.219571569 -1.888830769e-22)
(-0.004749063916 -0.08376938999 3.359240509e-22)
(-0.0003643623312 0.05901941164 1.550802352e-23)
(-0.01049684751 0.1379787203 -8.762954286e-22)
(-0.02441617386 0.1856674941 -1.156919588e-21)
(-0.04027060659 0.2101242242 -8.627738933e-22)
(-0.05631159769 0.218221179 0)
(-0.07215369161 0.2146072901 3.513299742e-23)
(-0.08779809157 0.2018703829 -7.293814055e-23)
(-0.1034628547 0.1809951583 5.86704029e-23)
(-0.1194055986 0.1518977867 3.020898787e-22)
(-0.1358008823 0.1139163157 -1.128040071e-23)
(-0.1526162831 0.06621820248 0)
(-0.1694601961 0.008183240836 -3.603419264e-22)
(-0.1852837347 -0.060152298 7.51476209e-22)
(-0.1980517014 -0.1372660148 8.830760521e-22)
(-0.2043601676 -0.2189166086 -5.295739441e-22)
(-0.1991016135 -0.2959609004 5.161926546e-22)
(-0.17606258 -0.3513962581 1.077786865e-23)
(-0.1300895834 -0.3584042811 -1.095094745e-23)
(-0.06688775522 -0.2843189086 -8.227631187e-23)
(-0.007083226758 -0.1169926735 0)
(-0.0009097561924 0.06539739486 -1.911269056e-23)
(-0.01167744154 0.1502736607 -1.326830339e-21)
(-0.0238921148 0.2000546913 1.094106248e-21)
(-0.03601845385 0.2244090563 6.734226833e-22)
(-0.0465797104 0.2316465914 6.013986231e-22)
(-0.05577835788 0.2272289553 6.643215752e-22)
(-0.06412154809 0.2141698293 -4.458134689e-23)
(-0.07228561941 0.1936450186 -3.460955464e-22)
(-0.08098043567 0.1656016522 2.15193205e-22)
(-0.09088308987 0.1292724747 0)
(-0.1025661132 0.08353491089 0)
(-0.1163734714 0.02720585717 2.655173859e-22)
(-0.1321697397 -0.04061331127 8.194885026e-23)
(-0.1489351193 -0.1200055673 -2.821167647e-22)
(-0.1641369325 -0.2089224806 -5.410768829e-23)
(-0.1727943954 -0.3006912611 1.302038895e-22)
(-0.1670355631 -0.3793243428 -3.399870937e-22)
(-0.1365314362 -0.4136363312 -1.59941699e-23)
(-0.08018297059 -0.3538247435 8.216387039e-23)
(-0.01050759573 -0.1594092447 -6.033118802e-22)
(-0.002260677056 0.07348675451 0)
(-0.01580535701 0.1626460898 2.145669845e-21)
(-0.02665444304 0.2117814273 0)
(-0.03422969579 0.2333842747 -1.351680182e-21)
(-0.0376023576 0.2377664215 6.184606176e-23)
(-0.03800696427 0.2312465973 -6.192400231e-22)
(-0.03669408838 0.2171835346 -4.755811224e-22)
(-0.0349027324 0.1968900209 8.300394674e-22)
(-0.03380132566 0.1703336675 -1.885494446e-22)
(-0.03451190278 0.1367241003 0)
(-0.03812874649 0.09480073073 0)
(-0.04566253399 0.04304817138 2.410897667e-23)
(-0.05791999503 -0.02013187132 -6.006738579e-22)
(-0.07515699479 -0.09620051181 -4.309233383e-22)
(-0.09646146916 -0.1855498199 4.637600843e-22)
(-0.1183542638 -0.2853510944 -6.488068009e-22)
(-0.1332774532 -0.3838327103 9.117970321e-23)
(-0.1265385869 -0.4504295882 2.943195982e-23)
(-0.08899274595 -0.4198474484 5.660813504e-22)
(-0.01526924742 -0.2111685405 6.021749737e-22)
(-0.005181053077 0.08597941294 0)
(-0.02525735137 0.1766251787 1.465623617e-22)
(-0.03483834015 0.2205896918 -4.916765411e-23)
(-0.03640697114 0.2354780597 7.642275252e-22)
(-0.03019403855 0.2343327101 -7.004743952e-22)
(-0.01917698449 0.2241534828 4.746054304e-23)
(-0.005627662521 0.2083475588 -1.018564634e-22)
(0.008556233804 0.1881214082 -3.389558118e-22)
(0.02178505826 0.1633908072 2.062654242e-22)
(0.03261417637 0.1333260957 0)
(0.03957146332 0.09664434769 0)
(0.04115781036 0.05174509179 -2.902472192e-22)
(0.03577341144 -0.003250496223 0)
(0.0219714557 -0.07057880016 -5.511949792e-22)
(-0.001274024692 -0.1525692024 -1.491629677e-23)
(-0.03311242447 -0.2505911253 2.559518387e-23)
(-0.06909852945 -0.3599304301 2.202717056e-22)
(-0.09228231041 -0.4575388233 4.790203168e-24)
(-0.08718254297 -0.469808876 -5.78981181e-22)
(-0.02103144309 -0.2698945763 0)
(-0.0111163967 0.1085974029 0)
(-0.04249052658 0.1947133078 -8.847885364e-22)
(-0.04795902148 0.2258156958 -5.410758147e-22)
(-0.0392015825 0.2282083406 4.543560054e-22)
(-0.01878691238 0.2182272301 -1.710146004e-24)
(0.007653688416 0.2028169932 -4.560725159e-23)
(0.03666789735 0.1847582074 5.696207221e-22)
(0.06581712754 0.1647096346 -2.766668827e-23)
(0.09325820346 0.1423124366 -2.069610485e-22)
(0.1173763813 0.1166287735 3.141991228e-23)
(0.1365341181 0.08641404296 -3.425704384e-23)
(0.1489558695 0.0501801524 -3.690408881e-23)
(0.1525177269 0.006162979035 3.205489274e-22)
(0.144928124 -0.04795761571 6.119346057e-22)
(0.1235085795 -0.1153021661 -5.100961318e-22)
(0.08632923532 -0.2004171127 -1.615963348e-22)
(0.03198556174 -0.3067787637 1.531365922e-22)
(-0.02362504216 -0.4239818082 7.293792785e-23)
(-0.06492568091 -0.487159111 1.913305046e-21)
(-0.0250999303 -0.3291527786 2.955006684e-21)
(-0.02004674861 0.1460732454 -4.390042621e-23)
(-0.06416475553 0.2112952682 4.417214395e-23)
(-0.05070453219 0.2177283612 1.000144131e-21)
(-0.01934514324 0.2014651635 -8.265702104e-24)
(0.02413840864 0.1809042445 0)
(0.07153307345 0.1606900723 4.363417656e-23)
(0.1190607464 0.1416469446 -2.273679492e-22)
(0.1644662295 0.1233165524 -9.027242225e-23)
(0.206214275 0.1048112554 3.680443783e-23)
(0.2429536928 0.08507204184 -1.701537078e-23)
(0.2732108449 0.06296303865 3.42975744e-23)
(0.2952447738 0.037265115 -6.592327892e-23)
(0.306689415 0.006537506084 -9.303478223e-23)
(0.3049673471 -0.03087535275 1.516983159e-22)
(0.2863883505 -0.07786096216 0)
(0.2470526069 -0.1399286918 1.505508643e-22)
(0.1810888225 -0.2266293637 2.560007597e-22)
(0.09604196189 -0.3443887441 0)
(-0.006698915159 -0.4552202212 -3.675654487e-21)
(-0.01922429466 -0.3777530176 -2.892635515e-21)
(-0.02591935601 0.2276834101 -9.514099919e-22)
(-0.03998299606 0.2238220176 -1.388937443e-22)
(0.0365610937 0.1810582123 -2.335473141e-22)
(0.1090489095 0.145104898 -1.193678952e-22)
(0.1817162516 0.1172430928 -4.295633054e-23)
(0.2490046419 0.0962775336 9.782483052e-23)
(0.3100278771 0.0800237868 -1.40848091e-22)
(0.364614157 0.06656727187 1.297072766e-22)
(0.4126179643 0.05449146431 -8.619444684e-23)
(0.4536177442 0.04270918672 1.132171644e-25)
(0.4867810382 0.03032369411 1.52765062e-23)
(0.5107391029 0.01653004679 7.996771562e-23)
(0.5236547691 0.0005376075224 -1.811041047e-22)
(0.5231760093 -0.01863266958 -1.617085048e-22)
(0.5052295564 -0.04286393203 -4.262656087e-23)
(0.4658695485 -0.07633177388 0)
(0.3952682307 -0.1286087701 -1.846502958e-22)
(0.2916060361 -0.2208467618 8.148785775e-22)
(0.1197448629 -0.3525016459 1.631605747e-21)
(0.02670530877 -0.3775497012 2.172657791e-21)
(0.21428961 0.1347448798 9.86487367e-22)
(0.2776316264 0.09870523942 0)
(0.4316597951 0.05810424364 -2.594236998e-22)
(0.5304751698 0.03846261673 -1.741595108e-22)
(0.6016961475 0.02623406197 0)
(0.6571186499 0.01831907112 -6.008661706e-23)
(0.7015193421 0.01313586825 6.377468562e-23)
(0.7376016532 0.009542049731 -1.799992299e-23)
(0.766933944 0.0068044738 2.885720333e-23)
(0.7902077782 0.004464840716 2.314848962e-23)
(0.8074528981 0.002221485298 0)
(0.8182600238 -0.0001498672832 -2.872864874e-23)
(0.8216484691 -0.002723630348 0)
(0.8162385487 -0.005712504427 2.737966852e-23)
(0.7991329449 -0.009611286256 1.421584992e-23)
(0.7679985981 -0.01500252527 -5.799484728e-23)
(0.7106556671 -0.02502524254 -2.535675168e-22)
(0.6235184567 -0.04204290461 -6.918119196e-22)
(0.4230090957 -0.09182973314 0)
(0.2705674532 -0.1524022078 -2.11948561e-21)
)


// ************************************************************************* //
