/*--------------------------------*- C++ -*----------------------------------*\
  =========                 |
  \\      /  F ield         | OpenFOAM: The Open Source CFD Toolbox
   \\    /   O peration     | Website:  https://openfoam.org
    \\  /    A nd           | Version:  13
     \\/     M anipulation  |
\*---------------------------------------------------------------------------*/
FoamFile
{
    format      ascii;
    class       vectorField;
    location    "23";
    object      U_all;
}
// * * * * * * * * * * * * * * * * * * * * * * * * * * * * * * * * * * * * * //


400
(
(0.0001636303728 -0.0001669929149 0)
(-0.0001612238008 4.425426678e-05 0)
(-0.001507226004 0.0002721608907 0)
(-0.003663608502 0.0004176239395 0)
(-0.006300312697 0.000493684351 0)
(-0.009128561106 0.0005205947954 0)
(-0.01190945947 0.0005080967484 0)
(-0.01442227066 0.0004559386578 0)
(-0.01644225574 0.0003585776746 0)
(-0.01774022166 0.0002116452909 0)
(-0.0181064297 1.859011087e-05 0)
(-0.01739520133 -0.0002041985877 0)
(-0.01557961023 -0.0004251065694 0)
(-0.01279956296 -0.0006007272999 0)
(-0.009382819214 -0.0006853041056 0)
(-0.0058196427 -0.0006450369157 0)
(-0.002681852564 -0.0004721810632 0)
(-0.000489369178 -0.0001937401399 0)
(0.0004680067979 0.0001138639182 0)
(0.0002871714948 0.0002806165835 0)
(-5.837207074e-05 0.0001593432108 0)
(-0.001992261625 0.001864872817 0)
(-0.006142374075 0.003601136319 0)
(-0.01199117216 0.004797775834 0)
(-0.01882457124 0.005422972116 0)
(-0.02600270708 0.00554989469 0)
(-0.03295109618 0.005229938799 0)
(-0.03912145537 0.004473425763 0)
(-0.04397039693 0.003274165572 0)
(-0.04697468469 0.00165064946 0)
(-0.04768818306 -0.0003128946721 0)
(-0.04583138377 -0.002438858592 0)
(-0.04139346999 -0.004453244388 0)
(-0.03471675319 -0.00601734171 0)
(-0.0265279862 -0.006796812598 0)
(-0.01788349812 -0.00655918392 0)
(-0.01000684074 -0.005275152635 0)
(-0.004024593275 -0.003194416228 0)
(-0.0006344755826 -0.0009032269371 0)
(0.0001951590321 0.0005154797986 0)
(-0.0003470221113 0.001665929333 0)
(-0.004250326695 0.006175618693 0)
(-0.01125464763 0.01017125501 0)
(-0.02047596565 0.01286913043 0)
(-0.03088848104 0.01422360334 0)
(-0.04162526879 0.01435740751 0)
(-0.05189227973 0.01336175414 0)
(-0.06092111401 0.0112650454 0)
(-0.06795784214 0.00808341026 0)
(-0.07229323819 0.003903375773 0)
(-0.07333690603 -0.001038298954 0)
(-0.07072492402 -0.006304242467 0)
(-0.0644400173 -0.01125748789 0)
(-0.05491493294 -0.01513053894 0)
(-0.04308188212 -0.01717047396 0)
(-0.03032552674 -0.0168466414 0)
(-0.018300982 -0.01407584564 0)
(-0.008611969578 -0.009395603586 0)
(-0.002415866273 -0.004045404371 0)
(1.269691538e-05 -7.910194127e-05 0)
(-0.0006075260358 0.004380422449 0)
(-0.00642034715 0.01299184334 0)
(-0.01615971787 0.01986896681 0)
(-0.02850998366 0.02433911773 0)
(-0.04213136892 0.02646119974 0)
(-0.05598625966 0.02644495999 0)
(-0.06914254339 0.02443143969 0)
(-0.08069748669 0.02047308939 0)
(-0.08976399065 0.01462032374 0)
(-0.09550291665 0.00704919812 0)
(-0.09719916957 -0.001818878474 0)
(-0.09437325263 -0.01124191306 0)
(-0.08691379397 -0.02015571439 0)
(-0.07520974759 -0.02727242534 0)
(-0.06024780984 -0.03129804702 0)
(-0.04362090494 -0.03126440535 0)
(-0.02737920377 -0.02691810883 0)
(-0.01368497259 -0.01904355275 0)
(-0.004345129071 -0.00958418395 0)
(-0.0001443749839 -0.001612250544 0)
(-0.0008319647777 0.008194079139 0)
(-0.008369601445 0.02210841856 0)
(-0.02060807166 0.03240143575 0)
(-0.03580745723 0.03882016368 0)
(-0.05233125182 0.04168863693 0)
(-0.06901209795 0.04137412306 0)
(-0.08484068372 0.03809142543 0)
(-0.09884614389 0.03192029902 0)
(-0.1100638084 0.02293931408 0)
(-0.11755352 0.01140162639 0)
(-0.1204628442 -0.002103007933 0)
(-0.1181323249 -0.01653949524 0)
(-0.1102401954 -0.03040383967 0)
(-0.09697842689 -0.04182397003 0)
(-0.07923235162 -0.04882604773 0)
(-0.05869891798 -0.04979248189 0)
(-0.0378341258 -0.04406471784 0)
(-0.01952318333 -0.03251295526 0)
(-0.006499935859 -0.01778581798 0)
(-0.0002883752345 -0.004133350749 0)
(-0.001019005822 0.01296577633 0)
(-0.01003974452 0.03326196972 0)
(-0.02445346251 0.04746455453 0)
(-0.04215154929 0.05599932998 0)
(-0.06124478931 0.0596175666 0)
(-0.08047978152 0.05892967894 0)
(-0.09882337953 0.05425762323 0)
(-0.1152933276 0.04570818689 0)
(-0.128894758 0.03336299834 0)
(-0.1386097803 0.017505638 0)
(-0.1434338203 -0.001168703351 0)
(-0.1424632409 -0.0213946548 0)
(-0.1350473022 -0.0412627344 0)
(-0.1210139772 -0.05827632282 0)
(-0.1009563315 -0.06962158833 0)
(-0.07651530228 -0.07273204772 0)
(-0.05051115737 -0.06615714122 0)
(-0.02671704361 -0.05053328999 0)
(-0.009162061615 -0.02916480479 0)
(-0.0004607167185 -0.00778789012 0)
(-0.001163428273 0.01853431324 0)
(-0.01137450882 0.04612712439 0)
(-0.02755384263 0.0646789684 0)
(-0.04730358485 0.07550350051 0)
(-0.06854122181 0.07992617145 0)
(-0.08997438771 0.07888862854 0)
(-0.1105972523 0.0728581626 0)
(-0.129471505 0.06196600432 0)
(-0.1456238816 0.04625769294 0)
(-0.1579960077 0.02597327459 0)
(-0.1654402664 0.001810459529 0)
(-0.1667770828 -0.02485046574 0)
(-0.1609371213 -0.05178522586 0)
(-0.1472219547 -0.0758839118 0)
(-0.1256997503 -0.0933500743 0)
(-0.09769163964 -0.100308629 0)
(-0.06619631358 -0.09395603061 0)
(-0.03594186762 -0.07412491042 0)
(-0.01269279091 -0.04456422064 0)
(-0.0007112406185 -0.0128992756 0)
(-0.00125809325 0.02470865541 0)
(-0.01231345981 0.06030542983 0)
(-0.02975863787 0.08356389633 0)
(-0.05099227887 0.09684053872 0)
(-0.07380070308 0.1021610618 0)
(-0.09689806724 0.1008843445 0)
(-0.1193549804 0.0936659386 0)
(-0.1403347491 0.08066193911 0)
(-0.1589498874 0.06183892772 0)
(-0.174166409 0.03730573839 0)
(-0.1847503328 0.007632172919 0)
(-0.1892753718 -0.02584852596 0)
(-0.1862284144 -0.060759411 0)
(-0.174267424 -0.09348164577 0)
(-0.1526878594 -0.1191817549 0)
(-0.1221139579 -0.1323331122 0)
(-0.08531612677 -0.1280649633 0)
(-0.04780560527 -0.1044731352 0)
(-0.01749232811 -0.06515871073 0)
(-0.001101398624 -0.01999460955 0)
(-0.001298492622 0.03126726087 0)
(-0.01281173114 0.07532619343 0)
(-0.03094107074 0.1035281727 0)
(-0.05295894712 0.1193662526 0)
(-0.07657497157 0.1256712281 0)
(-0.1005490795 0.124303951 0)
(-0.1240738644 0.1161595778 0)
(-0.1464741952 0.1014311518 0)
(-0.1670265724 0.07997434021 0)
(-0.1848191692 0.05168506326 0)
(-0.1986447009 0.01686816246 0)
(-0.2069430762 -0.02338282502 0)
(-0.2078344177 -0.06677607244 0)
(-0.1993127195 -0.1094186927 0)
(-0.1797032927 -0.1455607996 0)
(-0.1484930432 -0.1678294452 0)
(-0.1075734301 -0.1685303302 0)
(-0.06266756107 -0.1426652073 0)
(-0.02397473118 -0.09238760687 0)
(-0.001712682944 -0.02982168951 0)
(-0.001289782753 0.03797476644 0)
(-0.01287675793 0.09067033025 0)
(-0.0310623985 0.1238812173 0)
(-0.05304748293 0.1422706546 0)
(-0.07650521312 0.1495643295 0)
(-0.1002744995 0.1482126079 0)
(-0.1237123537 0.1394143121 0)
(-0.1463652561 0.1234316331 0)
(-0.1677604063 0.1000034786 0)
(-0.1872308392 0.06875979483 0)
(-0.2037595437 0.02962558284 0)
(-0.2158494678 -0.01674194105 0)
(-0.2214531926 -0.06842928025 0)
(-0.2180315423 -0.1216467854 0)
(-0.2028858436 -0.1700972708 0)
(-0.1739810435 -0.2046806458 0)
(-0.1315163395 -0.2143142742 0)
(-0.080361936 -0.1892320723 0)
(-0.03251648358 -0.1277811913 0)
(-0.002657863997 -0.04336290748 0)
(-0.001256709986 0.04462381697 0)
(-0.0126197153 0.105829399 0)
(-0.03026003617 0.1438753634 0)
(-0.05132563721 0.1645941709 0)
(-0.07347984071 0.1726987469 0)
(-0.09567739201 0.1713250674 0)
(-0.1174857656 0.1620531337 0)
(-0.1387319509 0.14526938 0)
(-0.1592779746 0.1206255567 0)
(-0.1788280336 0.08747985543 0)
(-0.1967406431 0.04531457203 0)
(-0.2118341768 -0.005807219512 0)
(-0.2222021692 -0.06465552191 0)
(-0.2250812413 -0.1280240776 0)
(-0.2169323037 -0.1897063989 0)
(-0.1940399009 -0.2394542468 0)
(-0.1541456524 -0.2627558832 0)
(-0.09980382559 -0.2434808269 0)
(-0.04333006997 -0.1726094933 0)
(-0.004091466951 -0.0618327388 0)
(-0.001257671186 0.05111133199 0)
(-0.01232212983 0.1204088272 0)
(-0.02895055746 0.1627846015 0)
(-0.04821516398 0.1852779026 0)
(-0.06779518468 0.1937193737 0)
(-0.08682603572 0.1920404895 0)
(-0.1051517523 0.1822854162 0)
(-0.1229403966 0.165033624 0)
(-0.1404576112 0.139910607 0)
(-0.1578785527 0.1060496991 0)
(-0.1750963607 0.06250016157 0)
(-0.1914966424 0.008656531244 0)
(-0.2056701454 -0.05516688387 0)
(-0.215088845 -0.1268464396 0)
(-0.2158483997 -0.2010981514 0)
(-0.2027901602 -0.2676116575 0)
(-0.1707843412 -0.3092580443 0)
(-0.1185577608 -0.3027118622 0)
(-0.05620949488 -0.227263525 0)
(-0.006213291856 -0.08662319345 0)
(-0.001407215012 0.05756354777 0)
(-0.01252358702 0.1342785973 0)
(-0.027936823 0.1800095702 0)
(-0.04459551835 0.2032329165 0)
(-0.0602569168 0.2111241408 0)
(-0.07437336501 0.2085327878 0)
(-0.08717773121 0.1980328795 0)
(-0.09924907888 0.1804535092 0)
(-0.1113011177 0.1554634839 0)
(-0.1240265994 0.1220561061 0)
(-0.1379367172 0.07893180402 0)
(-0.1531485947 0.02485909388 0)
(-0.1690672466 -0.04084588796 0)
(-0.1839225722 -0.1175080556 0)
(-0.1941627933 -0.2016082834 0)
(-0.193920153 -0.2842455839 0)
(-0.1754359788 -0.3475064217 0)
(-0.1325779794 -0.3616017663 0)
(-0.07012324844 -0.2903230281 0)
(-0.009253244528 -0.1191187068 0)
(-0.001917166389 0.06453322995 0)
(-0.01414332598 0.1477647942 0)
(-0.02849836977 0.1951729578 0)
(-0.04181580166 0.2173833193 0)
(-0.05211452013 0.2233162872 0)
(-0.05943729527 0.2188514179 0)
(-0.06459283854 0.2070958722 0)
(-0.06865779159 0.1891300185 0)
(-0.07281073733 0.164705642 0)
(-0.07824230987 0.1327640942 0)
(-0.0860610236 0.09179044373 0)
(-0.09714505015 0.04008570733 0)
(-0.111877133 -0.02391488615 0)
(-0.1296685884 -0.1010561485 0)
(-0.148135165 -0.1901665696 0)
(-0.1618816163 -0.2852849681 0)
(-0.1616144155 -0.370424485 0)
(-0.1363196945 -0.4121877818 0)
(-0.08269915549 -0.3574568433 0)
(-0.01338709268 -0.160226303 0)
(-0.003155715402 0.07329182216 0)
(-0.01862644044 0.1618477044 0)
(-0.03237319751 0.2081198969 0)
(-0.04142770851 0.2265892336 0)
(-0.04456582811 0.2285531545 0)
(-0.04292368174 0.2209412433 0)
(-0.0381624095 0.2072582259 0)
(-0.03195370337 0.1887292577 0)
(-0.02592825309 0.1651572176 0)
(-0.02169548525 0.1354819205 0)
(-0.02084729157 0.09810955193 0)
(-0.02491030305 0.05110313311 0)
(-0.03520186087 -0.007670832355 0)
(-0.05248428373 -0.08028183391 0)
(-0.07617780302 -0.1679528845 0)
(-0.1027234705 -0.2687550685 0)
(-0.1232149718 -0.3716919102 0)
(-0.1231256062 -0.444764722 0)
(-0.08968608417 -0.4206985391 0)
(-0.0184223287 -0.2095610318 0)
(-0.005633177247 0.0863198965 0)
(-0.02792552903 0.1782482729 0)
(-0.04119483067 0.2185512661 0)
(-0.04394846916 0.2291829852 0)
(-0.03698321119 0.2245702515 0)
(-0.0233833775 0.2123950313 0)
(-0.005991039553 0.1961640047 0)
(0.01286809267 0.1769790003 0)
(0.03117936014 0.154564269 0)
(0.04705205803 0.1278466495 0)
(0.05859065654 0.09525538569 0)
(0.06382973199 0.05484805416 0)
(0.0607363167 0.004328122177 0)
(0.04734881109 -0.05900269346 0)
(0.022269779 -0.1381493733 0)
(-0.01382109781 -0.2353402085 0)
(-0.05477557873 -0.3470942024 0)
(-0.08545930179 -0.4493665043 0)
(-0.08447068835 -0.4688092997 0)
(-0.02315123035 -0.2650236808 0)
(-0.009903024872 0.1088606927 0)
(-0.04354501211 0.1991167549 0)
(-0.05359435097 0.2245461884 0)
(-0.04415194922 0.2214884466 0)
(-0.02123912053 0.2074645941 0)
(0.008987340583 0.189711625 0)
(0.04243610892 0.1708850339 0)
(0.07632511724 0.1514885994 0)
(0.1085105775 0.1309379483 0)
(0.1370845999 0.1080869819 0)
(0.1601140533 0.08145565587 0)
(0.1754751479 0.04928856421 0)
(0.1807402319 0.009501793938 0)
(0.1731427742 -0.04055106195 0)
(0.1496906567 -0.1045464602 0)
(0.1080010808 -0.1877052972 0)
(0.04943192783 -0.2948601588 0)
(-0.01458774646 -0.4166646696 0)
(-0.05783223395 -0.4877473515 0)
(-0.02478372981 -0.3229500476 0)
(-0.01773548736 0.1519933631 0)
(-0.06145254502 0.2237197597 0)
(-0.0529053174 0.2172742487 0)
(-0.01569984335 0.1940822451 0)
(0.03327065074 0.1698907876 0)
(0.08566145137 0.1478018812 0)
(0.1375864221 0.1282039874 0)
(0.1868321738 0.110470551 0)
(0.2318494976 0.09351028737 0)
(0.2712500094 0.07608834557 0)
(0.3034894541 0.05690619695 0)
(0.3266688675 0.03456306636 0)
(0.3383648434 0.007480853552 0)
(0.3355218652 -0.02636820982 0)
(0.3142702575 -0.07014216226 0)
(0.2699467414 -0.1297347373 0)
(0.1983015604 -0.2159776391 0)
(0.1016400603 -0.3379982764 0)
(0.003542392653 -0.4564531852 0)
(-0.01617083908 -0.3688115819 0)
(-0.0241023908 0.2085409398 0)
(-0.03771464372 0.2306375947 0)
(0.03737796708 0.1765702545 0)
(0.1248489679 0.1365885075 0)
(0.2051113002 0.108562697 0)
(0.2766788914 0.0876062292 0)
(0.3403053915 0.07152379157 0)
(0.3963719254 0.05870586307 0)
(0.4450068404 0.04774004692 0)
(0.4859880421 0.03747745376 0)
(0.5187228308 0.02691934559 0)
(0.5419509442 0.01517168368 0)
(0.5537201529 0.001324291052 0)
(0.5513068204 -0.0157152088 0)
(0.5308170599 -0.03778822627 0)
(0.4866964883 -0.06880959279 0)
(0.4104550681 -0.1189515652 0)
(0.2903817077 -0.2093340506 0)
(0.1328458222 -0.3383035274 0)
(0.03852194981 -0.340255381 0)
(0.241956131 0.1092171824 0)
(0.3137067386 0.09723869984 0)
(0.4446809279 0.05702308703 0)
(0.5499264813 0.03509743764 0)
(0.6241185851 0.0236782878 0)
(0.6793058823 0.01662341349 0)
(0.722803567 0.01189812791 0)
(0.7577924256 0.008641676895 0)
(0.7858764824 0.006250277182 0)
(0.8078808141 0.004279688535 0)
(0.8239882185 0.002417427979 0)
(0.8338032241 0.0004493839681 0)
(0.8364244522 -0.001805321671 0)
(0.830385004 -0.004502378856 0)
(0.813317564 -0.007968983314 0)
(0.7812693789 -0.0128840685 0)
(0.7258886126 -0.02129885591 0)
(0.6300100495 -0.03818937231 0)
(0.4593004191 -0.08569598122 0)
(0.3048747567 -0.125723064 0)
)


// ************************************************************************* //
