/*--------------------------------*- C++ -*----------------------------------*\
  =========                 |
  \\      /  F ield         | OpenFOAM: The Open Source CFD Toolbox
   \\    /   O peration     | Website:  https://openfoam.org
    \\  /    A nd           | Version:  13
     \\/     M anipulation  |
\*---------------------------------------------------------------------------*/
FoamFile
{
    format      ascii;
    class       volScalarField;
    location    "11";
    object      p;
}
// * * * * * * * * * * * * * * * * * * * * * * * * * * * * * * * * * * * * * //

dimensions      [0 2 -2 0 0 0 0];

internalField   nonuniform List<scalar> 
400
(
-3.285678219e-09
-0.000387989306
-0.000821340139
-0.001095362438
-0.001117505654
-0.0008547432075
-0.000299798331
0.0005393551872
0.001638666163
0.002951667172
0.004402357383
0.005882129402
0.007255298218
0.008376030476
0.00911641009
0.009401004134
0.009238568554
0.008741170867
0.00812638492
0.007678160391
0.0003891922557
-1.109396731e-05
-0.0003805958762
-0.0005845680546
-0.000567964322
-0.0003122072579
0.0001882175362
0.0009293496181
0.001894040691
0.003045263919
0.004319390144
0.005623356503
0.006839203027
0.007839209789
0.008510943994
0.008787598441
0.008674110972
0.008259597016
0.007714934709
0.007254501903
0.0008393145408
0.0003290566391
-6.426287132e-05
-0.0002526416174
-0.0002290141843
3.250022254e-06
0.0004451481477
0.001097479825
0.001952753611
0.002986125108
0.004146809224
0.005353104788
0.006495123991
0.007448113083
0.008096998335
0.008367108521
0.008250363
0.007815379218
0.007201910364
0.006600734996
0.001118078263
0.0004590493198
-1.271226906e-05
-0.0002320061548
-0.0002322172491
-3.904769366e-05
0.0003433909803
0.0009215625276
0.001699789073
0.002667606401
0.003787590203
0.004986488927
0.006154320913
0.00715557353
0.007854413208
0.008149464219
0.008006240363
0.007473398675
0.00668589634
0.005857781984
0.001063146491
0.0002472696385
-0.0003240241304
-0.0006006767731
-0.0006484407812
-0.000511350292
-0.0001959890934
0.0003123825441
0.001032913653
0.001972719368
0.003110226593
0.004380867503
0.005670690666
0.006823586568
0.007666741818
0.008051816581
0.007899959593
0.007234496385
0.006204713607
0.005078987778
0.0005473734213
-0.0004203050691
-0.001097485167
-0.001446807141
-0.00156224674
-0.001502404561
-0.001272960767
-0.0008473602264
-0.0001872854729
0.0007375485996
0.001927955869
0.003333867969
0.004839869138
0.006264376733
0.007382358435
0.00797310404
0.007884137179
0.00709346149
0.005770558982
0.004267455123
-0.0005413555009
-0.001651086471
-0.002436323967
-0.002871057613
-0.00307702968
-0.00312540571
-0.003018325735
-0.002713832421
-0.002148920161
-0.001261601994
-1.681887536e-05
0.001563819592
0.003375071652
0.005213175797
0.006788304971
0.007774974055
0.007899661612
0.007049935968
0.005400496683
0.003420674571
-0.002305426113
-0.003545427148
-0.004440724403
-0.004975410243
-0.005301892803
-0.005504296574
-0.005580252245
-0.005469744203
-0.005079191609
-0.004303728053
-0.00305611643
-0.001306003716
0.0008773682346
0.00328582698
0.005561397141
0.007237299794
0.007848108048
0.007106145938
0.005138421494
0.002567843987
-0.004837632064
-0.006193712852
-0.007200608843
-0.007851177478
-0.008335044311
-0.008752748772
-0.009099050216
-0.009295353508
-0.009212762072
-0.00869137508
-0.007568983903
-0.005728959878
-0.003161395945
-3.765873736e-05
0.00323451902
0.006017771086
0.007561867673
0.007263404326
0.005080883538
0.001815193189
-0.008219529062
-0.009672970198
-0.01078790177
-0.01156470385
-0.01224164666
-0.01294318946
-0.01366633846
-0.01431675126
-0.01472858114
-0.01467677968
-0.01390041865
-0.01215255331
-0.009286278194
-0.005363155378
-0.0007841020877
0.003643803267
0.006787608988
0.007524524842
0.005415347351
0.001414790944
-0.01252167738
-0.01404490739
-0.01524825182
-0.01613941307
-0.01702440535
-0.018064426
-0.01926763198
-0.02053052966
-0.0216532133
-0.02234046666
-0.02221299232
-0.02085107693
-0.01790388345
-0.01321899586
-0.007083889924
-0.000412000791
0.005219544966
0.007921247052
0.0064832619
0.001877773913
-0.01781254431
-0.019359739
-0.02059427202
-0.02153534373
-0.02258891646
-0.02397234599
-0.02571651397
-0.02771748596
-0.02974790499
-0.03144425877
-0.03230073469
-0.03170136773
-0.02900670701
-0.02375887619
-0.0159727155
-0.006513147908
0.002638808388
0.008603944785
0.008888479614
0.004161029506
-0.02418850382
-0.02567311668
-0.02680346859
-0.02762864336
-0.02870924511
-0.03034497817
-0.0325997716
-0.03537513867
-0.038421943
-0.0413143861
-0.04342336518
-0.04392394233
-0.04186908892
-0.03639234616
-0.02707002436
-0.01447730064
-0.000791948239
0.01004269193
0.01368120881
0.009956419125
-0.0318509469
-0.03308791484
-0.03382363422
-0.03419339148
-0.03500202158
-0.0366594151
-0.03926241792
-0.04271214862
-0.04673387225
-0.05084124647
-0.05429098323
-0.05606319955
-0.05491063034
-0.04952563011
-0.0389232142
-0.02311633292
-0.00408909479
0.01337375441
0.02265111247
0.0220789879
-0.04128153238
-0.04183893057
-0.04158709353
-0.04088790788
-0.04092023177
-0.04221144726
-0.04486197562
-0.04874228797
-0.0535281078
-0.05865878822
-0.06327897484
-0.06619413149
-0.06588940714
-0.06065356406
-0.0489160578
-0.02992819406
-0.004993342553
0.02086220809
0.03872807718
0.0448201178
-0.05355916377
-0.05244333455
-0.05003008015
-0.0472442725
-0.04577510239
-0.04618915698
-0.04849881843
-0.05247586351
-0.05769435662
-0.06348200908
-0.06885302645
-0.07244322338
-0.07250498647
-0.06697709885
-0.05376775824
-0.03131604526
0.0001676229031
0.03629777539
0.06640938072
0.08393453026
-0.07091235889
-0.0659522257
-0.05903327217
-0.05258033696
-0.04872137913
-0.04773615368
-0.04934853973
-0.05311837474
-0.05843861524
-0.0644679357
-0.07005515923
-0.07365150151
-0.07327200806
-0.06652435078
-0.05083690844
-0.02385028322
0.01558189949
0.06472850922
0.1122149638
0.1470842818
-0.1001408329
-0.08453325461
-0.06786367503
-0.05546572877
-0.04841721442
-0.04577118025
-0.04660536686
-0.05010853319
-0.05540357685
-0.06143053912
-0.06687272722
-0.06997506187
-0.06848111765
-0.05962684414
-0.0402569296
-0.007098713892
0.04279066462
0.109804631
0.1849837204
0.2517468819
-0.1724490971
-0.1119061249
-0.07268503903
-0.05210550297
-0.04225956337
-0.03869291389
-0.03944986686
-0.04325084352
-0.04889646161
-0.05510599485
-0.06049053778
-0.06321925432
-0.06075489822
-0.04996708639
-0.02704860121
0.01261380782
0.07501651932
0.1669736355
0.2921646901
0.4431511088
-0.3523430009
-0.1520125993
-0.06862424854
-0.04221823005
-0.0318181086
-0.02829861175
-0.0296623714
-0.03435034727
-0.04088229642
-0.04784615
-0.05371302087
-0.05657525929
-0.05391486431
-0.04252361911
-0.01799654679
0.02606569607
0.1001006679
0.223242369
0.4247649035
0.7275510676
)
;

boundaryField
{
    movingWall
    {
        type            zeroGradient;
    }
    fixedWalls
    {
        type            zeroGradient;
    }
    frontAndBack
    {
        type            empty;
    }
}


// ************************************************************************* //
