/*--------------------------------*- C++ -*----------------------------------*\
  =========                 |
  \\      /  F ield         | OpenFOAM: The Open Source CFD Toolbox
   \\    /   O peration     | Website:  https://openfoam.org
    \\  /    A nd           | Version:  13
     \\/     M anipulation  |
\*---------------------------------------------------------------------------*/
FoamFile
{
    format      ascii;
    class       scalarField;
    location    "11";
    object      p_all;
}
// * * * * * * * * * * * * * * * * * * * * * * * * * * * * * * * * * * * * * //


400
(
-5.807247757e-07
-0.0005337560568
-0.0008629315636
-0.0009787692126
-0.0008903431156
-0.0006297652062
-0.0002341710846
0.0002609063998
0.0008195070357
0.001401868399
0.00196313647
0.002451499661
0.002812387016
0.002993266912
0.002952635491
0.00267174717
0.002169150691
0.001500783308
0.0008561775623
0.0002699489922
0.0005709843013
5.18606476e-06
-0.0003453160246
-0.0004757601267
-0.0004340467307
-0.0002466448737
5.714978064e-05
0.0004481258824
0.0008950827606
0.00136122565
0.001807617597
0.002183650393
0.002439646324
0.002528744213
0.002416998134
0.002094801736
0.001587203686
0.0009572846078
0.0003733761764
-0.000280905307
0.0009211976916
0.000294271114
-9.265602632e-05
-0.0002266460431
-0.0002080144156
-6.665989973e-05
0.0001731729724
0.00048985599
0.0008595840884
0.001251656632
0.001630640987
0.001947181434
0.002150943972
0.002193658083
0.002040198103
0.001680002699
0.001135548508
0.0004615837159
-0.0002232268309
-0.001047534609
0.0009363849639
0.0002375721548
-0.0001968406063
-0.0003357749423
-0.0003305007288
-0.0002175971349
-1.827604055e-05
0.0002540219722
0.0005849651065
0.000953122669
0.001320636916
0.00164233565
0.001859143748
0.001911478503
0.001750855261
0.00135352126
0.0007301722289
-7.390309232e-05
-0.0009722250838
-0.002102801909
0.0004442163561
-0.0003014781878
-0.0007636414149
-0.0009005881529
-0.0009042015652
-0.0008156654623
-0.0006510734773
-0.0004124470076
-0.0001009054094
0.0002731511879
0.0006796972854
0.001070752985
0.001376445575
0.001517275683
0.001417921383
0.001025609356
0.0003258969706
-0.0006500947488
-0.001839267124
-0.003342722509
-0.0007026432569
-0.001464809904
-0.001936945301
-0.002071284902
-0.00209253566
-0.002043235288
-0.001930402985
-0.001739391249
-0.001451346769
-0.001057670876
-0.0005744289565
-4.580413795e-05
0.000446971159
0.0007962041655
0.0008822288575
0.0005987666175
-0.0001187684011
-0.001268615333
-0.002815215234
-0.004791866652
-0.002638720614
-0.003384874259
-0.003860007128
-0.004005797924
-0.004075829534
-0.004110863263
-0.004104135677
-0.004017407719
-0.003801885418
-0.003416740615
-0.002849252796
-0.002125014343
-0.001328809974
-0.0006000719717
-0.0001233127297
-9.550804249e-05
-0.0006765070565
-0.001931699728
-0.003878357506
-0.006439042832
-0.0054729245
-0.006176911967
-0.006658729601
-0.006849074027
-0.007027408264
-0.007230739905
-0.007434556264
-0.007569669447
-0.007544880482
-0.007268383782
-0.006673944055
-0.005737027235
-0.004526056839
-0.003201726319
-0.002029599193
-0.001346401503
-0.001481941208
-0.002646525962
-0.004977113944
-0.00823417946
-0.009277344599
-0.009918528301
-0.01041920536
-0.0107028683
-0.01107394715
-0.01156669751
-0.01213766585
-0.01268122414
-0.01305123014
-0.01308151501
-0.01261200221
-0.01154445625
-0.009864350337
-0.007722510941
-0.005461920356
-0.003607621502
-0.002765668097
-0.003428874952
-0.005998196708
-0.01002895078
-0.01407232846
-0.01463280014
-0.0151642112
-0.01558981887
-0.01624379103
-0.01716377961
-0.01829117161
-0.01948307449
-0.02052947743
-0.02116967069
-0.02111986798
-0.02012744183
-0.01804651229
-0.0149379819
-0.01117307113
-0.007481239899
-0.004861353471
-0.004296546923
-0.006719798667
-0.01149175695
-0.01982036386
-0.02027933993
-0.02083567743
-0.02142051691
-0.02241435718
-0.0238715841
-0.02572829565
-0.02780973704
-0.02984065371
-0.03145298839
-0.03220766401
-0.03164708147
-0.0294140934
-0.02536368395
-0.01978490073
-0.01355022179
-0.008120808603
-0.005217638583
-0.006735167436
-0.01197186902
-0.02643983618
-0.02676206106
-0.02729256564
-0.02797588454
-0.02927740299
-0.0312904346
-0.03396090752
-0.0370922261
-0.04034958281
-0.04325696303
-0.0452070585
-0.04550153071
-0.04351566434
-0.03877250275
-0.03131479443
-0.02198673658
-0.01265071197
-0.005951235554
-0.005322093095
-0.01029056179
-0.03385202866
-0.0339597466
-0.03432830939
-0.03491182516
-0.03633778447
-0.0387699641
-0.04218059412
-0.04635977268
-0.05091962444
-0.05528323018
-0.05868443255
-0.0602085115
-0.05884626986
-0.05379163296
-0.04465959447
-0.03200738091
-0.01785190875
-0.005727405609
-0.001218114896
-0.004453687086
-0.04208550706
-0.04178681476
-0.04171118417
-0.04179184942
-0.04295850881
-0.04548253063
-0.0493719882
-0.05440063468
-0.06012291086
-0.06586460877
-0.0707091249
-0.07352042357
-0.07300823312
-0.0679341907
-0.05741744321
-0.04148608762
-0.02193668063
-0.002817897604
0.007726389033
0.008668980029
-0.05147514404
-0.05026417196
-0.04920353998
-0.0481025795
-0.04841466652
-0.05053980735
-0.05450602018
-0.06004338489
-0.06662000911
-0.07344939881
-0.0794629219
-0.08331948495
-0.08346843196
-0.07828045976
-0.06638415414
-0.0471387585
-0.02179781367
0.005791798044
0.02496758818
0.03372920544
-0.06314563218
-0.05972296173
-0.0566703373
-0.05335585034
-0.05203748272
-0.05319232247
-0.05679553734
-0.06247975685
-0.06954689159
-0.07706805771
-0.08379388362
-0.08816959063
-0.08840402631
-0.08246864283
-0.06859738807
-0.04544680898
-0.01363685507
0.02452176378
0.05562901437
0.07741738661
-0.07974045057
-0.0706776276
-0.06378057012
-0.05686177503
-0.05312019004
-0.05284459903
-0.05580020051
-0.06136409054
-0.06864437183
-0.07648317603
-0.08341534836
-0.08764346417
-0.08709354267
-0.07942399711
-0.06238493116
-0.03406099569
0.00543165034
0.0586097026
0.1057684958
0.1480026496
-0.1101584928
-0.08555732386
-0.07138156644
-0.05879100757
-0.05173442871
-0.04963365418
-0.05175377789
-0.05705780885
-0.06433385322
-0.07215659688
-0.07882120369
-0.08228476898
-0.08023951467
-0.06973758598
-0.04822344342
-0.0128244127
0.03806345037
0.1069713314
0.1778133174
0.256304065
-0.1681801417
-0.09969409644
-0.07488092576
-0.05472118236
-0.0445327838
-0.04142739348
-0.04345408683
-0.04900867328
-0.05656124374
-0.06447863497
-0.0708895616
-0.07357992563
-0.06983753058
-0.05688243913
-0.03103672954
0.01180960895
0.07540716499
0.1661920723
0.2759440899
0.4374986461
-0.3981775376
-0.1379062222
-0.07486933561
-0.04704768916
-0.03350469422
-0.02991853554
-0.03258730637
-0.03894080116
-0.04714775991
-0.05548446938
-0.06205498784
-0.06464621534
-0.0607147322
-0.04682200839
-0.01873798348
0.02984640267
0.1067921965
0.23323303
0.4196776471
0.7798279752
)


// ************************************************************************* //
