/*--------------------------------*- C++ -*----------------------------------*\
  =========                 |
  \\      /  F ield         | OpenFOAM: The Open Source CFD Toolbox
   \\    /   O peration     | Website:  https://openfoam.org
    \\  /    A nd           | Version:  13
     \\/     M anipulation  |
\*---------------------------------------------------------------------------*/
FoamFile
{
    format      ascii;
    class       surfaceScalarField;
    location    "11";
    object      phi;
}
// * * * * * * * * * * * * * * * * * * * * * * * * * * * * * * * * * * * * * //

dimensions      [0 3 -1 0 0 0 0];

internalField   nonuniform List<scalar> 
760
(
-1.319620598e-05
1.320387713e-05
-7.109675089e-05
5.790031497e-05
-0.0001595571394
8.846032999e-05
-0.000260814659
0.0001012574638
-0.0003619653753
0.0001011506722
-0.0004536223197
9.165688896e-05
-0.0005287046531
7.508225927e-05
-0.0005816015845
5.289686874e-05
-0.0006079157334
2.631409717e-05
-0.0006046967543
-3.219007338e-06
-0.0005708757377
-3.382102187e-05
-0.0005080380917
-6.283764608e-05
-0.0004209002373
-8.713783719e-05
-0.0003175737993
-0.0001033264014
-0.0002092913896
-0.0001082823706
-0.0001094385982
-9.985276646e-05
-3.173659173e-05
-7.770200548e-05
1.256525272e-05
-4.430186342e-05
2.105520103e-05
-8.489990088e-06
2.105516669e-05
-6.747726996e-05
8.068082828e-05
-0.0002410878061
0.0002315107315
-0.0004838029815
0.0003311756039
-0.0007570159417
0.0003744704211
-0.001029729922
0.0003738645869
-0.001277707317
0.0003396341914
-0.001481952795
0.000279327635
-0.001627456413
0.0001984004063
-0.001702773447
0.00010163106
-0.001700634853
-5.357669207e-06
-0.001618508791
-0.0001159471394
-0.001460692343
-0.0002206541352
-0.001239006595
-0.0003088236189
-0.0009733923112
-0.0003689407158
-0.000691174797
-0.0003904999123
-0.0004245578675
-0.0003664697172
-0.0002060434863
-0.0002962164005
-6.140643097e-05
-0.0001889388984
-1.340185144e-06
-6.855619723e-05
1.971500449e-05
-0.0001202890332
0.0002009697734
-0.0004060023577
0.0005172240451
-0.0007912419541
0.0007164151974
-0.001220536011
0.0008037643623
-0.001649229976
0.0008025584356
-0.002041510076
0.0007319142083
-0.002368554975
0.0006063724738
-0.002607133796
0.0004369791901
-0.002739222716
0.0002337199602
-0.0027528421
8.261718258e-06
-0.002643112906
-0.0002256763106
-0.002414884474
-0.0004488825359
-0.002084068423
-0.0006396396326
-0.001678674119
-0.0007743349898
-0.001238050259
-0.0008311237689
-0.0008095712764
-0.0007949487279
-0.0004420737546
-0.0006637139548
-0.000176073546
-0.0004549391117
-3.251020367e-05
-0.0002121194775
-1.279514309e-05
-0.0001681247405
0.0003690946221
-0.0005595789373
0.0009086782156
-0.0010812629
0.001238099134
-0.001660774101
0.001383275457
-0.002241400836
0.00138318507
-0.002777870962
0.001268384263
-0.0032332176
0.001061719055
-0.003576791886
0.0007805534305
-0.003783715513
0.0004406435325
-0.003835580374
6.012653429e-05
-0.003722928456
-0.000338328257
-0.003447269015
-0.0007245419937
-0.003024476885
-0.001062431769
-0.002486760892
-0.001312050986
-0.001882962967
-0.001434921694
-0.001275552544
-0.001402359151
-0.0007330117711
-0.001206254714
-0.0003175190044
-0.00087043184
-7.072284946e-05
-0.0004589155512
-8.351793148e-05
-0.0002120414587
0.0005811361223
-0.0007026451499
0.001399281799
-0.001355068913
0.001890522824
-0.00208120471
0.002109411169
-0.002813890992
0.002115871277
-0.003500180726
0.001954673953
-0.004096373372
0.001657911671
-0.004564922283
0.00124910233
-0.004873327307
0.000749048551
-0.004994857443
0.0001816566694
-0.004911248503
-0.0004219371959
-0.004616051351
-0.001019739147
-0.004119600546
-0.001558882583
-0.003453375248
-0.001978276304
-0.002672915368
-0.002215381588
-0.001856852545
-0.002218421966
-0.001099405748
-0.001963701468
-0.0004949788992
-0.001474858636
-0.000117861394
-0.0008360330043
-0.0002013793181
-0.0002517754379
0.0008329115212
-0.0008332096596
0.0019807159
-0.001608059948
0.002665373032
-0.002475151718
0.002976502893
-0.003359113175
0.002999832682
-0.004201342463
0.00279690321
-0.004952970661
0.00240953986
-0.005570246787
0.001866378466
-0.00601246151
0.001191263285
-0.006242297742
0.0004114929184
-0.006228772178
-0.0004354627436
-0.005951725019
-0.001296786298
-0.005409102289
-0.002101505314
-0.004624755495
-0.002762623114
-0.003655930128
-0.003184206975
-0.002596916474
-0.003277435624
-0.001574034624
-0.002986583286
-0.0007272646282
-0.002321628602
-0.0001798842184
-0.001383413411
-0.0003812635924
-0.0002855373178
0.001118448791
-0.000945707408
0.002640885912
-0.001829223964
0.003548889514
-0.002825479392
0.003972758321
-0.003853752722
0.004028105982
-0.004852268932
0.003795419394
-0.00576907809
0.00332634901
-0.006555641164
0.002652941553
-0.007163385692
0.001799007826
-0.007543222287
0.0007913295289
-0.007648352652
-0.0003303323675
-0.007439451217
-0.001505687728
-0.006894363214
-0.002646593336
-0.006019907589
-0.003637078766
-0.004865860634
-0.004338253953
-0.003536790629
-0.004606505637
-0.002194225062
-0.004329148829
-0.001038500956
-0.003477352707
-0.0002652611563
-0.002156653275
-0.0006465248304
-0.0003108971907
0.00142934595
-0.001031947937
0.003361936636
-0.002002332842
0.004519274351
-0.00310597295
0.005076398464
-0.004259958747
0.005182091758
-0.005402213421
0.004937674034
-0.006480475799
0.004404611373
-0.007443999758
0.003616465519
-0.008238440486
0.002593448567
-0.008804002277
0.001356891332
-0.009077520465
-5.681417547e-05
-0.00899690087
-0.001586307335
-0.008513025905
-0.003130468324
-0.007604436871
-0.004545667826
-0.006299014421
-0.00564367642
-0.004697825246
-0.006207694809
-0.002992092991
-0.006034881053
-0.001454421241
-0.005015024462
-0.0003841043065
-0.003226970316
-0.001030629178
-0.0003253528835
0.001754698813
-0.001083262806
0.004119846572
-0.002109225245
0.005545236712
-0.003285469985
0.006252643259
-0.004529974107
0.006426595855
-0.005783381562
0.006191081431
-0.006996506311
0.005617736087
-0.00812032031
0.00474027951
-0.009099077132
0.003572205398
-0.009866735529
0.002124549736
-0.01034634825
0.0004227985485
-0.01045550129
-0.001477154314
-0.0101136783
-0.00347229133
-0.009260759074
-0.00539858707
-0.007884225829
-0.007020209675
-0.006057338378
-0.00803458224
-0.003980206968
-0.008112012403
-0.00199757858
-0.006997652841
-0.0005478752562
-0.004676673735
-0.001578504387
-0.0003277470006
0.002082445788
-0.001093921732
0.00488602134
-0.002135229613
0.006586544491
-0.003335159637
0.007452573339
-0.004615251154
0.007706687336
-0.005921800307
0.0074976305
-0.007212439603
0.006908375318
-0.008444882306
0.005972722187
-0.009568539892
0.004695862995
-0.01051896747
0.003074977324
-0.01121497909
0.001118810166
-0.01155941612
-0.001132717295
-0.01144457101
-0.003587136458
-0.01076633148
-0.006076826602
-0.009453682155
-0.008332858997
-0.007519124049
-0.009969140305
-0.005130547914
-0.01050058845
-0.002679002732
-0.009449198006
-0.0007687746558
-0.006586901856
-0.002347278902
-0.0003200892408
0.002402534981
-0.001065637004
0.00563156915
-0.002076434252
0.007597341613
-0.003238743425
0.008614882557
-0.004479988705
0.008947932568
-0.005755017587
0.008772659281
-0.007032174917
0.008185532561
-0.008281482966
0.007222030192
-0.009465408384
0.005879788412
-0.01053171575
0.004141284708
-0.01140775068
0.001994845113
-0.01199577528
-0.000544692697
-0.01217363298
-0.003409278779
-0.01179815079
-0.006452308844
-0.01073015309
-0.009400856742
-0.008888140977
-0.01181115241
-0.006348673379
-0.01304005597
-0.003484420274
-0.01231345111
-0.001057937181
-0.009013384928
-0.003405215907
-0.0003099305873
0.002712465503
-0.001012919005
0.006334557632
-0.001947924064
0.008532346546
-0.00300381072
0.009670769253
-0.004116630761
0.01006075256
-0.005253334382
0.009909362815
-0.006397123894
0.009329321997
-0.007535728193
0.008360634462
-0.008652263886
0.006996324111
-0.009717457348
0.005206478186
-0.01068185374
0.002959241527
-0.01146527748
0.0002387310245
-0.01195280833
-0.002921747972
-0.01198108271
-0.006424034534
-0.01135065287
-0.01003128667
-0.00986686657
-0.01329493872
-0.007452041158
-0.01545488134
-0.00435516596
-0.01541032633
-0.001421390415
-0.01194716039
-0.004826606228
-0.0003137177116
0.003026183136
-0.0009691393794
0.006989979393
-0.001791550121
0.009354757196
-0.002671317538
0.01055053671
-0.00355822676
0.01094766175
-0.004437081735
0.01078821772
-0.005310990911
0.01020323111
-0.006190130385
0.00923977392
-0.007083751124
0.007889944875
-0.007993245738
0.006115972819
-0.008903668866
0.00386966469
-0.009773673347
0.001108735504
-0.01051454018
-0.002180881193
-0.01097801771
-0.005960557104
-0.0109352871
-0.01007401741
-0.01008948735
-0.01414073854
-0.008167362274
-0.01737700639
-0.005167902829
-0.01840978581
-0.001852358234
-0.01526270485
-0.006678964534
-0.0003619659185
0.003388148983
-0.000993191253
0.007621204852
-0.001681058303
0.01004262422
-0.002318507317
0.01118798578
-0.002880080833
0.01150923522
-0.003378637814
0.01128677461
-0.00384417725
0.01066877049
-0.004313467429
0.009709064078
-0.00482428779
0.00840076529
-0.005411048402
0.006702733484
-0.00609828006
0.004556896378
-0.00689047184
0.001900927285
-0.007752639226
-0.001318713846
-0.008584292556
-0.005128903862
-0.009179395879
-0.009478914261
-0.009190163847
-0.01412997075
-0.00815633839
-0.01841083195
-0.005721787705
-0.02084433658
-0.002319357819
-0.01866513457
-0.008998322606
-0.000508336682
0.003896485624
-0.001175603923
0.008288472216
-0.001718641814
0.01058566213
-0.002044943184
0.0115142872
-0.002176569786
0.01164086177
-0.002171245429
0.01128145011
-0.002095141248
0.01059266617
-0.002015194125
0.009629116878
-0.001996828168
0.008382399288
-0.002104407405
0.006810312775
-0.002398434392
0.004850923437
-0.002929511707
0.00243200463
-0.003725148194
-0.0005230774002
-0.004761113128
-0.004092939069
-0.005912890846
-0.008327136611
-0.00686833908
-0.01317452265
-0.007057085888
-0.01822208531
-0.005736011374
-0.02216541116
-0.002744110692
-0.02165703486
-0.01174243348
-0.0008390453252
0.004735530952
-0.001630514258
0.009079941248
-0.001998388467
0.01095353635
-0.001908969217
0.011424868
-0.001475075623
0.01120696816
-0.0008238416497
0.010630216
-6.859431064e-05
0.009837418645
0.0006932740301
0.008867248395
0.001370835463
0.007704837751
0.001876616905
0.006304531315
0.002122621178
0.004604919198
0.002020679856
0.002533945947
0.001484672186
1.293026141e-05
0.0004574326117
-0.003065699544
-0.001059496779
-0.006810207304
-0.002889211901
-0.01134480754
-0.004503897081
-0.01660740012
-0.00483460184
-0.0218347062
-0.002951482745
-0.02354015418
-0.01469391616
-0.001472257651
0.006207788629
-0.002401953774
0.01000963752
-0.002416123738
0.01096770625
-0.001668120513
0.01067686476
-0.0004346019855
0.009973449622
0.00106227026
0.009133343746
0.002659289448
0.008240399292
0.004231593444
0.007294944238
0.005673680545
0.006262750517
0.006884681318
0.005093530468
0.00776020723
0.003729393285
0.008187091616
0.002107061546
0.008040489715
0.000159532165
0.007192510996
-0.002217720785
0.005524673684
-0.005142370165
0.003025685828
-0.00884581959
4.800831867e-05
-0.01362972273
-0.002466959982
-0.01931973761
-0.00260863364
-0.02339848057
-0.01730254963
-0.002368163104
0.008575951728
-0.002975950117
0.01061742488
-0.001950270465
0.009942026424
3.518220547e-05
0.008691411909
0.002471047125
0.007537584465
0.005060779369
0.006543611285
0.00762885388
0.005672324638
0.01005752188
0.004866276186
0.01225163535
0.004068637058
0.01411812602
0.003227039842
0.01555472476
0.002292794566
0.01644270477
0.00121908169
0.01663228067
-3.004366986e-05
0.01597420563
-0.001559645772
0.0142626937
-0.003430858335
0.01129941318
-0.005882538786
0.007028897495
-0.009359207278
0.002185211916
-0.01447605202
-0.00103446385
-0.02017880482
-0.01833701348
-0.002148566988
0.01072451858
-7.202522014e-05
0.008540883409
0.003734898507
0.006135102776
0.007701258873
0.004725051613
0.01152946696
0.003709376375
0.01509513306
0.002977945117
0.01834195485
0.002425502781
0.02123752987
0.00197070117
0.02374584295
0.001560324053
0.02581508104
0.001157801844
0.02737163087
0.0007362447492
0.02831407683
0.0002766356787
0.02853618119
-0.0002521480783
0.02785786877
-0.0008813334689
0.02607804976
-0.001651039326
0.02289327839
-0.002697767815
0.01789566064
-0.004361589568
0.01075945551
-0.007339846775
0.002908954028
-0.01232830323
-0.01542805948
0.01072451839
0.01926540175
0.02540050452
0.03012555609
0.03383493242
0.03681287752
0.03923838033
0.04120908155
0.04276940565
0.04392720754
0.0446634523
0.04494008778
0.04468793953
0.04380660592
0.04215556679
0.03945779896
0.03509620936
0.02775636265
0.01542805947
)
;

boundaryField
{
    movingWall
    {
        type            calculated;
        value           uniform 0;
    }
    fixedWalls
    {
        type            calculated;
        value           uniform 0;
    }
    frontAndBack
    {
        type            empty;
    }
}


// ************************************************************************* //
