/*--------------------------------*- C++ -*----------------------------------*\
  =========                 |
  \\      /  F ield         | OpenFOAM: The Open Source CFD Toolbox
   \\    /   O peration     | Website:  https://openfoam.org
    \\  /    A nd           | Version:  13
     \\/     M anipulation  |
\*---------------------------------------------------------------------------*/
FoamFile
{
    format      ascii;
    class       vectorField;
    location    "11";
    object      U_all;
}
// * * * * * * * * * * * * * * * * * * * * * * * * * * * * * * * * * * * * * //


400
(
(8.702987601e-06 -3.377160032e-05 0)
(-0.000660739995 0.0004092535904 -1.516932654e-23)
(-0.002153611261 0.0009062318537 0)
(-0.003982083106 0.001290372295 0)
(-0.005870644405 0.001507948279 6.410278191e-25)
(-0.007629621811 0.001541959127 4.100371357e-24)
(-0.009126448664 0.001398660468 -5.796347393e-24)
(-0.01026234347 0.001100903832 9.235563298e-24)
(-0.01095875258 0.0006853922108 -2.246820864e-25)
(-0.01115625915 0.0002011762005 -4.236004561e-24)
(-0.01081953138 -0.0002940847423 6.086483018e-24)
(-0.009948581243 -0.0007355276764 -6.175876583e-23)
(-0.008591527932 -0.001060972002 -6.840170231e-23)
(-0.006852730776 -0.00121960246 -8.108220786e-23)
(-0.00489677532 -0.001183826776 4.804058653e-24)
(-0.002942206441 -0.0009601312871 -4.407306923e-24)
(-0.00123805688 -0.0005969227205 -2.200571219e-22)
(-5.424026786e-05 -0.0001810419274 0)
(0.0004931081531 0.0001586289801 2.510866099e-25)
(0.0002163695951 0.0002971485525 -1.575274816e-23)
(-0.0002587048287 0.0008209835414 1.339036481e-25)
(-0.002653272824 0.003326120586 1.526786982e-23)
(-0.006772807708 0.005499072142 1.511777912e-25)
(-0.01171591243 0.00687277722 -7.98748247e-25)
(-0.01679563604 0.007408303559 1.078087354e-24)
(-0.02154413002 0.007157498627 1.169647584e-23)
(-0.0256080084 0.00621001466 2.801804738e-24)
(-0.02871798533 0.00467934887 -8.947004627e-24)
(-0.03066464906 0.002706697227 1.109502877e-23)
(-0.03129710673 0.0004678448122 4.787824538e-24)
(-0.03053009181 -0.001825695306 -6.627848573e-24)
(-0.02836894475 -0.003931826299 2.792252918e-24)
(-0.02493884188 -0.005599075091 4.030256665e-23)
(-0.02049967333 -0.006597494325 -2.074603934e-24)
(-0.01545467128 -0.00676114051 4.014164408e-24)
(-0.01033271408 -0.006035774749 -1.076418265e-22)
(-0.005735562203 -0.004523616066 1.071216218e-22)
(-0.002264672862 -0.002521489212 -5.944602029e-25)
(-0.0002100777914 -0.0005393954303 6.094536735e-25)
(7.924874215e-05 0.000580730169 0)
(-0.0004088573809 0.002883544373 -2.806656631e-25)
(-0.004546878848 0.008629957953 1.60022148e-23)
(-0.01112518383 0.0129697584 -8.390269741e-24)
(-0.01891104055 0.01546851821 -1.907195159e-25)
(-0.02688993094 0.01619784045 1.873625959e-25)
(-0.03438478414 0.01534303404 4.488101139e-26)
(-0.04086401648 0.01312165052 -2.584000622e-24)
(-0.04591144154 0.009768221614 -5.512245155e-25)
(-0.04919789426 0.005551559852 -1.161835552e-23)
(-0.05047931963 0.0007973352162 0)
(-0.04960975181 -0.004094875096 0)
(-0.04657473609 -0.008665824475 2.819847029e-23)
(-0.04153179488 -0.01241507832 2.971683017e-23)
(-0.03483780209 -0.01485940621 -1.777241232e-24)
(-0.02706492259 -0.0156122184 5.332448749e-23)
(-0.01898096468 -0.01448310762 1.041269351e-22)
(-0.0114776532 -0.01158396306 5.169099584e-23)
(-0.005447467607 -0.00742431223 8.177848436e-25)
(-0.001459857084 -0.00297083393 -1.068847355e-25)
(-9.092208725e-05 0.0001830399015 0)
(-0.0004891694079 0.00592334552 -4.027285748e-23)
(-0.006255141361 0.01602573659 -1.589701579e-23)
(-0.01518346445 0.02305920704 8.311775516e-24)
(-0.02569498406 0.02686612666 0)
(-0.03647538745 0.02774465513 0)
(-0.04667652507 0.02607427197 0)
(-0.05562318421 0.02223144384 -9.877278636e-26)
(-0.06277371396 0.01658643302 -9.581957708e-25)
(-0.06768291102 0.009543370593 0)
(-0.06999462459 0.001587208351 2.026253059e-24)
(-0.06946745838 -0.006680785594 3.060460091e-25)
(-0.06601255326 -0.01454492146 -3.06902995e-25)
(-0.0597457211 -0.02119740598 0)
(-0.05104542083 -0.02581706026 4.609772324e-23)
(-0.04058841412 -0.02769230935 -5.155129065e-23)
(-0.02934893777 -0.02639128467 -3.3715168e-23)
(-0.01852854397 -0.02195916785 -5.174768932e-23)
(-0.009397587145 -0.01510287933 7.628410332e-25)
(-0.002957111465 -0.007297448869 8.19948141e-23)
(-0.00022934354 -0.0009080816373 0)
(-0.0005175270126 0.009878798028 4.046969738e-23)
(-0.007800283261 0.02538976797 4.859427168e-25)
(-0.01896208936 0.03564588831 -4.748453919e-25)
(-0.03210452282 0.0409757457 0)
(-0.04564964637 0.04202780472 7.416280062e-25)
(-0.05860806778 0.03943613103 -7.313458378e-25)
(-0.07019029646 0.03375521213 3.428797552e-23)
(-0.07974673453 0.02548606485 1.575221152e-23)
(-0.08671388468 0.01515152945 5.257271226e-24)
(-0.09060080579 0.003378607134 -2.028613848e-24)
(-0.09101559091 -0.009038522603 0)
(-0.08771459415 -0.02110884354 5.075752295e-25)
(-0.08067872847 -0.03166458827 1.28614631e-23)
(-0.07020716681 -0.0394479381 -4.858339559e-23)
(-0.05700026097 -0.04327803823 2.285859998e-24)
(-0.04220932186 -0.04231003759 5.476143862e-23)
(-0.02740009857 -0.03636528887 -5.909424046e-25)
(-0.01437474024 -0.02626164981 0)
(-0.004804889984 -0.01400404961 5.280687838e-23)
(-0.0003581544264 -0.002868907198 -2.371955014e-22)
(-0.0005146233002 0.01467253091 9.821522197e-23)
(-0.009174826511 0.03657924254 -4.939583458e-25)
(-0.02239753072 0.05060094828 0)
(-0.03802788895 0.05772403414 0)
(-0.054272178 0.05906701041 -8.511363417e-23)
(-0.0700350012 0.05557594681 -8.208014805e-23)
(-0.0844441927 0.04799300157 -3.797864625e-23)
(-0.09676252686 0.03692709199 -1.350638816e-23)
(-0.1063096159 0.0229776349 -4.493938795e-24)
(-0.1124354424 0.006865234614 -7.411710106e-24)
(-0.1145434155 -0.01045907563 5.735469679e-24)
(-0.1121486555 -0.02774378728 7.147092607e-24)
(-0.1049817217 -0.04342361699 -1.806785084e-23)
(-0.09313136873 -0.05569713961 -2.638461841e-24)
(-0.0771999233 -0.06272415912 0)
(-0.05844600026 -0.06298434016 -2.261857001e-23)
(-0.03883428786 -0.05579376898 2.087684966e-25)
(-0.02087570584 -0.04188206446 0)
(-0.007227429598 -0.02377632656 -1.344275514e-22)
(-0.0005122819167 -0.005910245149 5.647319405e-22)
(-0.0004899172777 0.02020226231 -9.754193515e-23)
(-0.01032656865 0.04938417537 2.79345118e-22)
(-0.02533961422 0.06769380038 1.503267582e-22)
(-0.04320393639 0.07692545107 3.541561388e-24)
(-0.06196653681 0.0787740799 -7.158990476e-23)
(-0.08047043184 0.07454833803 8.730799893e-23)
(-0.09780013885 0.06517935934 -3.459484615e-24)
(-0.1131616226 0.05134657602 -1.633600033e-24)
(-0.1257738862 0.03366132914 2.375201944e-24)
(-0.1348219947 0.01285845804 6.672200504e-24)
(-0.1394690409 -0.01003267164 -5.677926999e-24)
(-0.1389148651 -0.03355559709 -7.936804135e-24)
(-0.1325222242 -0.05574998317 -3.171914287e-23)
(-0.12001087 -0.07418501935 -2.409203591e-23)
(-0.1017026545 -0.08614887123 3.071639844e-25)
(-0.07880416825 -0.0890909622 0)
(-0.05362273932 -0.08137109369 0)
(-0.02951804507 -0.06323333646 -2.600806521e-24)
(-0.01053462681 -0.03761033355 2.658485521e-24)
(-0.00072284112 -0.01042851183 1.005137207e-22)
(-0.000443861904 0.0263184409 0)
(-0.01116903869 0.06349176565 1.964767735e-22)
(-0.02757088561 0.08655147884 8.794247403e-23)
(-0.0472459738 0.09822413434 0)
(-0.0681460916 0.1008705408 1.5325295e-22)
(-0.08910266783 0.09620652493 0)
(-0.1092047695 0.08535058009 -1.38305448e-22)
(-0.1276478578 0.06900935155 6.27502927e-24)
(-0.1435919888 0.04772805883 0)
(-0.1560876151 0.02215136431 0)
(-0.1640658291 -0.006731787411 -1.287678858e-24)
(-0.1663802506 -0.03736417951 -8.438387932e-25)
(-0.1619389874 -0.06747182303 1.376214138e-22)
(-0.1499324613 -0.09397703667 -4.582256602e-23)
(-0.1301616638 -0.1131202338 -2.225705559e-24)
(-0.1034949985 -0.120914872 1.220130377e-24)
(-0.07234871264 -0.1141201163 -1.239377064e-24)
(-0.04092329473 -0.09177564808 0)
(-0.01508934874 -0.0568171178 3.016959655e-24)
(-0.00102918378 -0.01699816975 -9.629382207e-22)
(-0.0003768087176 0.03281778337 0)
(-0.01161545259 0.07846747725 -1.112833302e-22)
(-0.02885887299 0.106628216 -6.087401977e-22)
(-0.04971314206 0.1210396788 -3.685176968e-22)
(-0.0720983287 0.1248009618 0)
(-0.09488444877 0.1200781904 4.017614499e-22)
(-0.1172188065 0.1081822122 1.220862027e-22)
(-0.1383487497 0.08981199147 -5.386121234e-24)
(-0.1574483501 0.06537283041 5.359463397e-24)
(-0.1735132523 0.03530849782 0)
(-0.1853085767 0.0004234343142 2.803423668e-23)
(-0.1913981517 -0.0378039725 4.458330001e-24)
(-0.1902329022 -0.07694687921 -1.008689258e-22)
(-0.1803541878 -0.1133967472 7.37177436e-23)
(-0.1607888421 -0.1423023533 -2.26755323e-22)
(-0.131658992 -0.1578924675 0)
(-0.0950058298 -0.1545377234 0)
(-0.05554721199 -0.1289161152 0)
(-0.02128781427 -0.08297881294 0)
(-0.00148245781 -0.02641182285 5.312937072e-22)
(-0.0002967826837 0.03945622489 0)
(-0.0116245694 0.09377305464 -3.436175627e-22)
(-0.02904011394 0.1272069605 8.78482292e-22)
(-0.05023036812 0.1445399428 3.549482919e-22)
(-0.07313793325 0.1496688513 0)
(-0.09671833062 0.1452579506 -3.767460528e-22)
(-0.1202325712 0.1328326107 -3.090695217e-23)
(-0.1430535207 0.1130741108 3.245355117e-22)
(-0.1644682894 0.08620065327 1.720453657e-22)
(-0.183544674 0.05236329936 -3.944870694e-23)
(-0.1990429854 0.0120346769 1.630437879e-23)
(-0.2093803523 -0.03360338206 -7.958701776e-24)
(-0.2126591144 -0.08223264132 3.261923506e-22)
(-0.2067945126 -0.1300095864 0)
(-0.189858052 -0.1711888317 2.268648431e-22)
(-0.1607743127 -0.1980990309 5.319822623e-24)
(-0.1204767941 -0.2019732786 -5.399157545e-24)
(-0.07339325321 -0.1755344443 1.405623217e-22)
(-0.02951404316 -0.1177838743 -5.014832385e-24)
(-0.002159192147 -0.03970331161 0)
(-0.0002280023779 0.04599432537 0)
(-0.01126059231 0.1088301924 0)
(-0.02813100939 0.1474468368 -4.940725835e-22)
(-0.04865012437 0.1676592013 -1.849673001e-23)
(-0.0708235761 0.1742218397 1.997099722e-23)
(-0.09374044242 0.1703562408 -1.973519526e-23)
(-0.1168324381 0.1578485007 -2.261342653e-23)
(-0.139676105 0.1373892428 -2.949432462e-22)
(-0.1617846533 0.1090091921 6.619704957e-23)
(-0.1824573069 0.0725229282 4.38368335e-23)
(-0.2006572763 0.02795898427 -4.442344171e-23)
(-0.214902449 -0.02399934254 0)
(-0.2232116424 -0.08149241443 -7.379371052e-23)
(-0.2230748831 -0.1409068505 0)
(-0.2116250531 -0.1961201707 -3.628130615e-22)
(-0.1862623936 -0.2378830817 5.050355143e-22)
(-0.1459787842 -0.2539162192 0)
(-0.09358099475 -0.2312395617 -1.355401372e-22)
(-0.04002887696 -0.1626639118 1.79427181e-22)
(-0.003179389534 -0.05814933242 -3.268807764e-22)
(-0.0002237514735 0.05228360895 0)
(-0.01076855319 0.1231384051 9.05459056e-22)
(-0.026455741 0.1664828545 -2.404631925e-23)
(-0.0452327603 0.1891707036 9.057475932e-22)
(-0.06520043809 0.196905196 -2.470699996e-23)
(-0.08564948557 0.1935407144 2.783526418e-23)
(-0.1062499034 0.1811914323 -2.758117325e-23)
(-0.1268600617 0.1606201901 -1.625613489e-23)
(-0.1473248915 0.1317237071 -5.149428333e-22)
(-0.1673274734 0.09400644904 -8.715598575e-24)
(-0.186250995 0.04701907885 9.456047134e-24)
(-0.2030068417 -0.009200290933 3.25362639e-22)
(-0.2159011407 -0.07361328809 -5.700627898e-22)
(-0.2224026437 -0.1433690911 0)
(-0.2190308136 -0.2127935817 8.673407685e-22)
(-0.2016749103 -0.271960883 -4.758001695e-22)
(-0.1667584085 -0.3054896446 -1.514124824e-23)
(-0.1138417659 -0.2934496493 0)
(-0.05274357346 -0.2181441949 -1.749321708e-22)
(-0.004728414582 -0.08321348977 3.220344826e-22)
(-0.0003908278216 0.05840849014 1.529768507e-23)
(-0.01067361228 0.1364502509 -8.64179713e-22)
(-0.02477853062 0.1835719876 -1.142769215e-21)
(-0.04080440211 0.2078064123 -8.501534327e-22)
(-0.05699411162 0.2159818798 0)
(-0.07296742964 0.2126790855 3.45492505e-23)
(-0.08873251723 0.2004098805 -7.169778081e-23)
(-0.1045104406 0.1800846585 5.76464928e-23)
(-0.1205564549 0.1515535814 2.962649496e-22)
(-0.1370372071 0.11409927 -1.108411265e-23)
(-0.1539072392 0.06684985433 0)
(-0.1707554508 0.00916562182 -3.538337447e-22)
(-0.1865195276 -0.05890906308 7.400902792e-22)
(-0.1991552469 -0.1358340906 8.715468346e-22)
(-0.2052527073 -0.2173336552 -5.188198741e-22)
(-0.1997205699 -0.2942434163 5.075105393e-22)
(-0.17638911 -0.3495795199 1.029253625e-23)
(-0.1301688565 -0.3566241342 -1.045782308e-23)
(-0.06683911071 -0.2828791447 -9.425918591e-23)
(-0.007067605192 -0.1163730954 0)
(-0.0009388257119 0.06490607258 -1.888575467e-23)
(-0.01192324102 0.1489772958 -1.312873553e-21)
(-0.02442239644 0.1982234975 1.080791255e-21)
(-0.03683103137 0.2223493975 6.661653848e-22)
(-0.04764609482 0.2296453551 5.945460204e-22)
(-0.0570637497 0.2255150376 6.560969918e-22)
(-0.06559123811 0.2128984962 -4.393165097e-23)
(-0.07390517166 0.1928947647 -3.414918087e-22)
(-0.08271504213 0.1653828584 2.123548662e-22)
(-0.09269587012 0.1295361352 0)
(-0.1044146914 0.08419057315 0)
(-0.1182068206 0.02814284621 2.62776029e-22)
(-0.1339282172 -0.03950430838 8.285482133e-23)
(-0.1505487371 -0.1188049871 -2.762777367e-22)
(-0.1655258497 -0.2076645074 -5.351690329e-23)
(-0.1738777027 -0.2993662741 1.318529999e-22)
(-0.1677594859 -0.3779051427 -3.337459896e-22)
(-0.1368884109 -0.4121716836 -2.112499524e-23)
(-0.08025775883 -0.3525246847 9.413036169e-23)
(-0.01050285036 -0.1587811078 -6.108519846e-22)
(-0.002289912892 0.07314750882 0)
(-0.01609754098 0.1616555528 2.124610673e-21)
(-0.02730557428 0.2103087137 0)
(-0.03525066595 0.2316789618 -1.338751303e-21)
(-0.03896031091 0.236086248 6.271813311e-23)
(-0.03964865706 0.2298055933 -6.115397039e-22)
(-0.03855770074 0.2161306687 -4.703063047e-22)
(-0.03692265331 0.196298442 8.198048065e-22)
(-0.03591420117 0.1702163871 -1.86034138e-22)
(-0.03666098433 0.1370321274 0)
(-0.0402617876 0.09544387284 0)
(-0.04773188174 0.04391389271 2.456899032e-23)
(-0.05988270671 -0.01915610311 -5.951979487e-22)
(-0.07696573374 -0.09520880618 -4.270734068e-22)
(-0.09805965891 -0.1845857688 4.613505024e-22)
(-0.1196700871 -0.2844050752 -6.41927517e-22)
(-0.134251555 -0.3828443667 8.816874912e-23)
(-0.1271127473 -0.449391105 3.479668558e-23)
(-0.08918977683 -0.4188243957 5.682719061e-22)
(-0.01528047444 -0.2106021614 6.097008566e-22)
(-0.005206257712 0.08580830176 0)
(-0.02555771917 0.175983179 1.472746868e-22)
(-0.03553154151 0.2195364169 -4.880060342e-23)
(-0.03751843194 0.2341919427 7.57734848e-22)
(-0.0316924346 0.2330273495 -6.94038861e-22)
(-0.02099644994 0.2230145528 4.701268599e-23)
(-0.007686794622 0.2075108975 -1.015951316e-22)
(0.00635213261 0.1876607446 -3.35036497e-22)
(0.0195265481 0.1633215751 2.043348676e-22)
(0.03037308158 0.1336116145 0)
(0.03740988833 0.09720871619 0)
(0.03912220911 0.05248810269 -2.879602608e-22)
(0.03388736284 -0.002435932741 0)
(0.02025803129 -0.06977834695 -5.491686899e-22)
(-0.002789443805 -0.1518428591 -1.367911507e-23)
(-0.03438724842 -0.2499447686 2.54725279e-23)
(-0.07012148585 -0.3593068406 2.172323262e-22)
(-0.09295220755 -0.4569418519 4.885729008e-24)
(-0.08745207972 -0.4691369394 -5.814104125e-22)
(-0.02106008354 -0.2694565095 0)
(-0.01112982416 0.1085816199 0)
(-0.04273666685 0.1944099819 -8.789537997e-22)
(-0.04856784016 0.2251869374 -5.387665246e-22)
(-0.04021639961 0.2273554809 4.524144939e-22)
(-0.0201924878 0.2173126674 -1.739040911e-24)
(0.005917067194 0.2019837053 -4.531828787e-23)
(0.03469021046 0.1841226173 5.647983442e-22)
(0.06370010844 0.1643457183 -2.742288458e-23)
(0.09110270946 0.1422402437 -2.049848231e-22)
(0.1152689617 0.1168302026 3.117289519e-23)
(0.1345439472 0.08683684945 -3.4024624e-23)
(0.1471297072 0.05074944053 -3.671748724e-23)
(0.1508860399 0.006798200502 3.192452673e-22)
(0.143501533 -0.04734835842 6.09769961e-22)
(0.1222812508 -0.1147798876 -5.087840596e-22)
(0.08532257658 -0.200005981 -1.619916018e-22)
(0.0310944983 -0.3064620803 1.520635751e-22)
(-0.0242634269 -0.4236633326 7.291941648e-23)
(-0.06517764295 -0.4867991923 1.9117558e-21)
(-0.02513505296 -0.3288717906 2.953266614e-21)
(-0.02003781635 0.1461556363 -4.375726226e-23)
(-0.06427821227 0.2112436462 4.402808378e-23)
(-0.05106854519 0.217453498 9.969230699e-22)
(-0.02002378595 0.2010023435 -7.481137931e-24)
(0.02312049993 0.1803520139 0)
(0.07019884325 0.1601527834 4.337984525e-23)
(0.1174849615 0.1412118343 -2.257532953e-22)
(0.1627367305 0.1230437525 -8.958051305e-23)
(0.2044274658 0.1047263533 3.650643495e-23)
(0.2412008967 0.08517102152 -1.688052371e-23)
(0.2715698417 0.06321513414 3.406487992e-23)
(0.2937806028 0.03762018509 -6.557663713e-23)
(0.3054114395 0.006934229908 -9.257647807e-23)
(0.3038875867 -0.03048779719 1.514084243e-22)
(0.2855105932 -0.07753703908 0)
(0.2463545937 -0.139704457 1.510653773e-22)
(0.1805217216 -0.2265317687 2.556748904e-22)
(0.09561730753 -0.3442596489 0)
(-0.006914143403 -0.4550859024 -3.672680323e-21)
(-0.01925970214 -0.3776293482 -2.890926026e-21)
(-0.02589391462 0.2277701088 -9.506155425e-22)
(-0.03994245679 0.2238820023 -1.386363659e-22)
(0.03651613609 0.1810060385 -2.327727906e-22)
(0.1088222409 0.1449413417 -1.188401801e-22)
(0.1812490345 0.1170041741 -4.288651272e-23)
(0.2482797632 0.09602397062 9.741600121e-23)
(0.3090774067 0.07980492729 -1.399963159e-22)
(0.3634988146 0.06642001681 1.287470826e-22)
(0.4114165545 0.05443491931 -8.550246752e-23)
(0.452412945 0.04274530372 1.130796936e-25)
(0.4856476504 0.03043829597 1.518532594e-23)
(0.5097351003 0.01669834386 7.954798338e-23)
(0.5228250866 0.0007164048464 -1.804469637e-22)
(0.5225445125 -0.01845668385 -1.614157524e-22)
(0.5047645525 -0.04272081691 -4.261972146e-23)
(0.4655422294 -0.07624128422 0)
(0.3950304843 -0.1285808054 -1.838185361e-22)
(0.291426322 -0.2208373557 8.139793739e-22)
(0.1196368629 -0.3524939218 1.630226788e-21)
(0.02667801444 -0.3775334794 2.171941143e-21)
(0.2143160918 0.1347709135 9.856107918e-22)
(0.2777142755 0.09873868858 0)
(0.4317520841 0.05811991228 -2.590316677e-22)
(0.5305139335 0.03845758564 -1.739606119e-22)
(0.6016270318 0.02621287623 0)
(0.6569152173 0.01829230579 -5.986185521e-23)
(0.7011884684 0.01311254369 6.337799304e-23)
(0.7371741827 0.009529257404 -1.784837818e-23)
(0.7664556455 0.006805805169 2.861693674e-23)
(0.7897290913 0.004480504701 2.296254161e-23)
(0.8070201735 0.002248674263 0)
(0.8179075146 -0.0001153397797 -2.856766171e-23)
(0.8213964887 -0.002686388093 0)
(0.8160915706 -0.005684509436 2.73117683e-23)
(0.799069377 -0.009594735018 1.427757594e-23)
(0.7679910974 -0.01499782447 -5.788731702e-23)
(0.7106698844 -0.02503234835 -2.53066362e-22)
(0.6235274275 -0.04205100678 -6.911078574e-22)
(0.4230079344 -0.09183838352 0)
(0.2705648396 -0.152406131 -2.118786303e-21)
)


// ************************************************************************* //
