/*--------------------------------*- C++ -*----------------------------------*\
  =========                 |
  \\      /  F ield         | OpenFOAM: The Open Source CFD Toolbox
   \\    /   O peration     | Website:  https://openfoam.org
    \\  /    A nd           | Version:  13
     \\/     M anipulation  |
\*---------------------------------------------------------------------------*/
FoamFile
{
    format      ascii;
    class       vectorField;
    location    "17.08";
    object      U_all;
}
// * * * * * * * * * * * * * * * * * * * * * * * * * * * * * * * * * * * * * //


400
(
(1.070157882e-05 -3.761118229e-05 0)
(-0.0006657974255 0.0004127174713 -1.539884554e-23)
(-0.002182914545 0.0009192727783 0)
(-0.004042692757 0.001311018967 0)
(-0.005963952164 0.001532941222 6.798652442e-25)
(-0.007752381246 0.001567668791 4.149638441e-24)
(-0.009272212246 0.001421622159 -7.21133789e-24)
(-0.01042241593 0.001118258721 7.703504903e-24)
(-0.01112295499 0.0006952516194 -2.11026988e-25)
(-0.01131381715 0.0002029265517 -4.01807275e-24)
(-0.01095992147 -0.0002997571727 5.830550873e-24)
(-0.01006268228 -0.0007465867092 -5.95267571e-23)
(-0.008672966011 -0.001074429246 -6.579004873e-23)
(-0.006898885246 -0.001231995846 -7.813567692e-23)
(-0.004909556728 -0.001191942784 4.5939491e-24)
(-0.002928284567 -0.0009617621121 -4.161274745e-24)
(-0.001207735266 -0.0005916293235 -2.015927371e-22)
(-2.171557401e-05 -0.0001707210371 0)
(0.0005162569679 0.0001710651782 1.593043109e-25)
(0.000222264999 0.0003053066742 -3.651247577e-24)
(-0.0002630621073 0.0008281913273 1.386610763e-25)
(-0.002699440821 0.003379240761 1.549536834e-23)
(-0.006896788517 0.005596209849 1.538194415e-25)
(-0.01193386697 0.006997609112 -8.428841457e-25)
(-0.0171085723 0.007542428773 1.151607597e-24)
(-0.02194176356 0.007283567462 1.291999052e-23)
(-0.02607165352 0.006313218211 1.540227552e-24)
(-0.02922310524 0.004748408473 -7.450952269e-24)
(-0.03118312392 0.002734809509 1.0245524e-23)
(-0.0317997652 0.0004535951454 4.53697701e-24)
(-0.0309890512 -0.001879619425 -6.348263071e-24)
(-0.02876028315 -0.004015977816 2.948253388e-24)
(-0.02524557725 -0.005699910439 3.908097331e-23)
(-0.02071386867 -0.006698912331 -1.965332813e-24)
(-0.01557904143 -0.006846934685 3.777156046e-24)
(-0.0103809117 -0.006092653372 -9.828538154e-23)
(-0.00573051661 -0.004544370929 9.728936298e-23)
(-0.002235659692 -0.002508415022 -4.12684814e-25)
(-0.0001838921944 -0.0005051439179 4.230924019e-25)
(8.312103877e-05 0.0006077201168 0)
(-0.0004180668992 0.002930961212 -2.909533271e-25)
(-0.004640026867 0.008790330185 1.703697388e-23)
(-0.01135275589 0.01321925267 -8.201930812e-24)
(-0.01929491258 0.01576682167 -2.048441126e-25)
(-0.02742872272 0.01650418676 2.012378885e-25)
(-0.03506090562 0.01562106986 1.111870975e-26)
(-0.04164762827 0.01334158472 -1.367514287e-24)
(-0.04676420949 0.009908145505 -4.652395585e-25)
(-0.05007635753 0.005598618182 -1.072821008e-23)
(-0.05134030832 0.0007486391081 0)
(-0.05041095186 -0.004230367741 0)
(-0.0472782952 -0.00887007916 2.684661871e-23)
(-0.04211090921 -0.01266120258 2.827314165e-23)
(-0.03527760947 -0.0151147321 -1.657598218e-24)
(-0.02736483658 -0.01584264214 4.88778587e-23)
(-0.01915537473 -0.01465863264 9.504282695e-23)
(-0.01155436598 -0.01168505648 4.075880086e-23)
(-0.005463921695 -0.007448567136 4.478867101e-25)
(-0.001451708251 -0.002938579723 8.954774754e-26)
(-9.073286572e-05 0.0002226551302 0)
(-0.0005014454172 0.006035759328 -4.241269752e-23)
(-0.006391297954 0.0163437869 -1.693855727e-23)
(-0.01550776989 0.02352036894 8.128463066e-24)
(-0.02623387291 0.02739691782 0)
(-0.03722463819 0.02827638562 0)
(-0.047612046 0.02654810416 0)
(-0.05670611102 0.0226004963 -5.022570978e-26)
(-0.06395524341 0.01681705946 -2.022265757e-24)
(-0.0689086756 0.009616362974 0)
(-0.07120740812 0.001498711233 1.670896564e-24)
(-0.0706133768 -0.006916652432 2.825959268e-25)
(-0.06704474018 -0.01490046002 -2.833871896e-25)
(-0.06062603906 -0.02163112536 0)
(-0.05174913849 -0.02627771086 4.174332101e-23)
(-0.04110689038 -0.02812471959 -4.722361429e-23)
(-0.02969125524 -0.02674430276 -2.813292783e-23)
(-0.01872111924 -0.02219552727 -4.062729893e-23)
(-0.00948103619 -0.01521012466 7.783284307e-25)
(-0.00297532762 -0.007297961703 9.659571969e-23)
(-0.0002316857564 -0.0008692871625 0)
(-0.0005305377429 0.01007813465 4.26191129e-23)
(-0.007969444635 0.02590842194 4.775996948e-25)
(-0.01936332637 0.03636804465 -4.666915012e-25)
(-0.03276837448 0.04178711655 0)
(-0.04657011318 0.04282794035 7.740139012e-25)
(-0.0597566519 0.04014196699 -7.632819524e-25)
(-0.07152220485 0.03430213133 3.64904069e-23)
(-0.08120640797 0.02582854573 1.822581182e-23)
(-0.08823964353 0.01526408097 6.151259525e-24)
(-0.09212838995 0.00325668874 -1.672843161e-24)
(-0.09248266764 -0.009379197324 0)
(-0.08906423495 -0.02163119341 4.431775453e-25)
(-0.08186224505 -0.03231349712 1.032625435e-23)
(-0.07118803762 -0.04015391558 -4.393146233e-23)
(-0.05775777131 -0.04396361403 1.962790591e-24)
(-0.04274192211 -0.04289940375 4.322790467e-23)
(-0.02772748409 -0.03679754088 -4.014453051e-25)
(-0.01453719006 -0.02650672461 0)
(-0.004855278484 -0.01407819896 5.424759819e-23)
(-0.0003636921537 -0.002848519065 -2.549422679e-22)
(-0.000526267139 0.01497388389 9.829737381e-23)
(-0.009362334328 0.03732733801 -4.902422669e-25)
(-0.02284466045 0.05161702233 0)
(-0.03876889961 0.05884786282 0)
(-0.05530123411 0.06016433226 -8.710300166e-23)
(-0.07132221138 0.05653914352 -8.472028825e-23)
(-0.08594272912 0.04874012282 -4.041839205e-23)
(-0.09841462433 0.03740114609 -1.490309974e-23)
(-0.1080511805 0.02314657924 -5.290917286e-24)
(-0.1141995116 0.006722219964 -8.110584269e-24)
(-0.1162634691 -0.01089617757 6.528529845e-24)
(-0.1137615172 -0.02843212151 8.686636765e-24)
(-0.1064300444 -0.04429796016 -1.885750843e-23)
(-0.09436685542 -0.05667264087 4.006013857e-24)
(-0.0781876708 -0.06370217745 0)
(-0.05916966222 -0.06386241599 -1.630372438e-23)
(-0.03930150863 -0.05648131133 -4.990085627e-27)
(-0.021121693 -0.04232164285 0)
(-0.007311763145 -0.02396641009 -1.506247557e-22)
(-0.0005209071376 -0.005924267092 6.02323969e-22)
(-0.0004983998356 0.02061141588 -9.762764325e-23)
(-0.01051403121 0.05037168021 2.827996524e-22)
(-0.0257922054 0.06901473576 1.524545467e-22)
(-0.04395908402 0.07837205312 3.611759418e-24)
(-0.06302055578 0.08017822708 -7.306778135e-23)
(-0.08179510756 0.07577881278 9.014514625e-23)
(-0.09935038966 0.06613824607 -3.578658427e-24)
(-0.1148818188 0.05196663706 -1.721088695e-24)
(-0.1276024003 0.03390454288 2.51161738e-24)
(-0.136694399 0.01271514559 7.322636448e-24)
(-0.1413201172 -0.01054478422 -6.431908923e-24)
(-0.1406809336 -0.03439082727 -9.633792713e-24)
(-0.1341426419 -0.05683777102 -3.255118692e-23)
(-0.1214295104 -0.07543046687 -3.558323933e-23)
(-0.1028720247 -0.08743658143 5.434152472e-25)
(-0.07969139637 -0.09029316238 0)
(-0.05421825286 -0.08236344051 0)
(-0.02984491707 -0.06392069399 -2.881311375e-24)
(-0.01065315437 -0.03795908499 2.945211602e-24)
(-0.0007341658693 -0.01049528768 1.026153719e-22)
(-0.0004476332261 0.02682977843 0)
(-0.01133560179 0.0647062275 1.999093184e-22)
(-0.02798230478 0.08816204676 8.949241956e-23)
(-0.04794162957 0.0999778795 0)
(-0.06912591135 0.1025673352 1.566518861e-22)
(-0.0903425331 0.09769346359 0)
(-0.1106642728 0.08651584143 -1.424653239e-22)
(-0.1292769296 0.06977745757 6.495599184e-24)
(-0.1453356588 0.04805663758 0)
(-0.1578892029 0.02202891912 0)
(-0.1658675018 -0.007287669922 -1.367407152e-24)
(-0.1681259158 -0.03830994776 -9.246058499e-25)
(-0.1635741907 -0.0687355607 1.482663622e-22)
(-0.1514019631 -0.09546080598 -4.695544455e-23)
(-0.1314121902 -0.1147002234 -2.533874775e-24)
(-0.1044797812 -0.1224448831 1.509219514e-24)
(-0.07303758927 -0.115443284 -1.533026212e-24)
(-0.04131812406 -0.0927510829 0)
(-0.01524003205 -0.05736278539 3.188851103e-24)
(-0.00104316738 -0.01713575668 -1.008924103e-21)
(-0.0003746774456 0.0334134524 0)
(-0.0117400085 0.07987234865 -1.126584455e-22)
(-0.02918100806 0.1084849698 -6.182164685e-22)
(-0.05027217849 0.1230564867 -3.749420837e-22)
(-0.07289842456 0.1267491391 0)
(-0.09590697082 0.1217856103 4.111141633e-22)
(-0.1184296781 0.109525557 1.257624385e-22)
(-0.1397054276 0.09071020494 -5.566111546e-24)
(-0.1589050973 0.06578201152 5.538562338e-24)
(-0.1750248059 0.03521780593 0)
(-0.1868337342 -0.0001485905389 2.903565947e-23)
(-0.1928971352 -0.03881394544 4.6770178e-24)
(-0.1916660709 -0.07832554387 -1.071372065e-22)
(-0.1816809338 -0.115051016 7.953630094e-23)
(-0.1619626573 -0.1441119672 -2.407703528e-22)
(-0.1326281232 -0.1597066198 0)
(-0.09572113585 -0.1561773018 0)
(-0.05598122138 -0.1301936306 0)
(-0.02146428302 -0.08374832287 0)
(-0.001499035956 -0.02663668093 5.551469015e-22)
(-0.0002881396124 0.04010680704 0)
(-0.01168861212 0.09530880473 -3.488150971e-22)
(-0.02922944294 0.1292391902 8.920429425e-22)
(-0.05058161352 0.1467477527 3.611495695e-22)
(-0.07365940487 0.1517997907 0)
(-0.09739758269 0.1471234006 -3.85478692e-22)
(-0.1210427617 0.1343002157 -3.167721945e-23)
(-0.1439607243 0.1140603269 3.326165352e-22)
(-0.1654378118 0.08666405161 1.765621277e-22)
(-0.1845459678 0.05229831056 -4.051142004e-23)
(-0.2000530699 0.0114651053 1.654851888e-23)
(-0.2103832609 -0.03462948948 -8.241265139e-24)
(-0.2136431956 -0.0836494966 3.363300389e-22)
(-0.207746198 -0.1317347672 0)
(-0.1907527239 -0.1731183634 2.40886671e-22)
(-0.1615700395 -0.200096655 5.738715585e-24)
(-0.1211150987 -0.203858614 -5.824296714e-24)
(-0.0738158979 -0.1770855665 1.537100101e-22)
(-0.02970264662 -0.1187827166 -5.401948845e-24)
(-0.002178019655 -0.04002746749 0)
(-0.0002129893627 0.04666126035 0)
(-0.01125111159 0.1104185404 0)
(-0.02815499837 0.1495610418 -5.015974678e-22)
(-0.04873868025 0.1699622667 -1.878441383e-23)
(-0.07098889472 0.1764436898 2.035064778e-23)
(-0.09397712226 0.1722947711 -2.0110364e-23)
(-0.117122097 0.1593646177 -2.312497608e-23)
(-0.1399946146 0.1383999093 -3.023468004e-22)
(-0.1621093312 0.1094797621 6.692741922e-23)
(-0.1827732234 0.0724590066 4.503048004e-23)
(-0.200961831 0.02739663644 -4.567163961e-23)
(-0.2152053383 -0.02500413151 0)
(-0.2235328129 -0.08287083857 -7.803487709e-23)
(-0.2234361896 -0.1425888403 0)
(-0.2120364059 -0.1980272021 -3.73091394e-22)
(-0.1867086057 -0.2399126398 5.229779378e-22)
(-0.1464097402 -0.2559150646 0)
(-0.09391873678 -0.2329795657 -1.482983337e-22)
(-0.04020581288 -0.1638637585 1.926194494e-22)
(-0.003199479949 -0.05857586353 -3.400231291e-22)
(-0.0002032509871 0.05292314348 0)
(-0.01068018368 0.1246894091 9.172534878e-22)
(-0.02629811857 0.1685706254 -2.437769163e-23)
(-0.04502894114 0.191457803 9.182432547e-22)
(-0.06496668923 0.199111786 -2.508766298e-23)
(-0.0853895 0.1954549544 2.834473497e-23)
(-0.1059567743 0.1826696553 -2.808599453e-23)
(-0.126522503 0.1615820351 -1.658165518e-23)
(-0.1469342786 0.1321441879 -5.251609358e-22)
(-0.1668847163 0.09390658362 -8.891807447e-24)
(-0.185772087 0.0464532942 9.644459349e-24)
(-0.2025204444 -0.01015902056 3.308507136e-22)
(-0.2154543012 -0.07489382852 -5.811486679e-22)
(-0.2220516758 -0.1449064723 0)
(-0.2188219739 -0.2145351102 8.870770043e-22)
(-0.2016307254 -0.2738489204 -4.926625779e-22)
(-0.1668568761 -0.3074246054 -1.567694459e-23)
(-0.1140089899 -0.2952364271 0)
(-0.05287442443 -0.2194725141 -1.879019684e-22)
(-0.004747645917 -0.08373074811 3.349485526e-22)
(-0.0003662306976 0.05897649965 1.54930758e-23)
(-0.01050945708 0.137871319 -8.754337007e-22)
(-0.02444209027 0.1855204089 -1.155913336e-21)
(-0.04030883482 0.20996194 -8.618755906e-22)
(-0.05636049573 0.2180650163 0)
(-0.0722119594 0.2144735998 3.509171089e-23)
(-0.08786487868 0.2017699835 -7.285058528e-23)
(-0.1035376244 0.1809336199 5.859834461e-23)
(-0.1194876328 0.1518757459 3.01681022e-22)
(-0.1358888199 0.1139307227 -1.126666329e-23)
(-0.1527079267 0.06626333775 0)
(-0.1695519469 0.008252149837 -3.598886228e-22)
(-0.1853711362 -0.06006581441 7.506856435e-22)
(-0.1981297126 -0.1371669158 8.822773985e-22)
(-0.2044232769 -0.2188073327 -5.288258017e-22)
(-0.1991454832 -0.2958423996 5.155899738e-22)
(-0.176085885 -0.3512708231 1.07439858e-23)
(-0.1300954956 -0.3582811842 -1.091652068e-23)
(-0.06688457963 -0.2842192444 -8.311524018e-23)
(-0.007082163096 -0.1169497163 0)
(-0.0009117949401 0.06536296473 -1.909658564e-23)
(-0.01169480586 0.150182746 -1.325839908e-21)
(-0.02392962497 0.1999263837 1.093159406e-21)
(-0.03607594007 0.2242650815 6.729070129e-22)
(-0.04665510441 0.2315072471 6.009126864e-22)
(-0.05586912425 0.2271103123 6.637401265e-22)
(-0.06422503403 0.2140825651 -4.453563482e-23)
(-0.07239951287 0.193594689 -3.457731382e-22)
(-0.08110237613 0.1655882457 2.14994673e-22)
(-0.09101029704 0.1292923528 0)
(-0.1026956343 0.08358155965 0)
(-0.1165017296 0.02727148067 2.653274546e-22)
(-0.1322926341 -0.04053629454 8.201248811e-23)
(-0.1490478076 -0.119922698 -2.817115352e-22)
(-0.1642338584 -0.2088359243 -5.406683459e-23)
(-0.1728699976 -0.3006001506 1.30319629e-22)
(-0.1670860824 -0.3792266612 -3.3955339e-22)
(-0.1365564203 -0.413535268 -1.63523043e-23)
(-0.08018831464 -0.3537349563 8.300165221e-23)
(-0.01050728476 -0.1593657911 -6.038414409e-22)
(-0.002262717195 0.07346302747 0)
(-0.01582587854 0.162576726 2.14417553e-21)
(-0.02670021668 0.2116783702 0)
(-0.03430145725 0.2332651992 -1.350761021e-21)
(-0.03769772589 0.2376495158 6.190750038e-23)
(-0.03812215728 0.2311468347 -6.186956233e-22)
(-0.03682426366 0.217110946 -4.752050522e-22)
(-0.03504363099 0.1968510503 8.293262107e-22)
(-0.0339488646 0.1703272169 -1.883735078e-22)
(-0.03466163277 0.1367468706 0)
(-0.03827713282 0.09484633117 0)
(-0.04580625534 0.04310872697 2.414107283e-23)
(-0.05805623521 -0.02006405535 -6.002953171e-22)
(-0.07528249697 -0.09613216561 -4.306573071e-22)
(-0.09657226084 -0.185483694 4.635937257e-22)
(-0.1184454786 -0.2852862936 -6.483305546e-22)
(-0.1333448827 -0.3837649553 9.097150035e-23)
(-0.1265783504 -0.4503579847 2.980647392e-23)
(-0.08900648169 -0.4197769107 5.662365573e-22)
(-0.01527002476 -0.2111294207 6.027035361e-22)
(-0.005182806587 0.08596746577 0)
(-0.02527837912 0.1765802664 1.466123513e-22)
(-0.03488690579 0.2205160542 -4.914153633e-23)
(-0.03648484036 0.2353883447 7.637656847e-22)
(-0.03029897621 0.2342419643 -7.000175963e-22)
(-0.01930455142 0.2240748065 4.742843063e-23)
(-0.005770132064 0.2082903007 -1.018377271e-22)
(0.00840392473 0.1880906673 -3.386850931e-22)
(0.02162766203 0.1633871981 2.06130127e-22)
(0.03245869998 0.1333469124 0)
(0.03942187806 0.09668412861 0)
(0.04101737035 0.05179673788 -2.900889952e-22)
(0.03564313938 -0.003194617723 0)
(0.02185296621 -0.07052396747 -5.51055371e-22)
(-0.001378671604 -0.1525196151 -1.483116523e-23)
(-0.03320049524 -0.2505471191 2.558662718e-23)
(-0.06916889884 -0.3598879993 2.200593658e-22)
(-0.09232838235 -0.4574974923 4.796985065e-24)
(-0.0872012757 -0.4697625591 -5.791530989e-22)
(-0.02103340225 -0.2698643453 0)
(-0.01111732629 0.1085963105 0)
(-0.04250772288 0.1946920961 -8.84374135e-22)
(-0.04800157444 0.2257717665 -5.409104041e-22)
(-0.03927252508 0.2281489324 4.542168032e-22)
(-0.01888504428 0.218163635 -1.712100286e-24)
(0.007532569886 0.2027595698 -4.558670201e-23)
(0.03653075063 0.1847153399 5.692761331e-22)
(0.06567060693 0.1646846751 -2.764960254e-23)
(0.09310879348 0.1423080997 -2.06822825e-22)
(0.1172306886 0.1166433836 3.140269488e-23)
(0.1363967229 0.08644375631 -3.424089737e-23)
(0.1488297813 0.05021964285 -3.689106185e-23)
(0.1524054125 0.006206432025 3.204576658e-22)
(0.1448303576 -0.04791594333 6.117853979e-22)
(0.123424247 -0.1152665362 -5.100052135e-22)
(0.08625973962 -0.2003891571 -1.61622342e-22)
(0.03192476187 -0.3067571707 1.530663059e-22)
(-0.02366850928 -0.423960087 7.293652489e-23)
(-0.0649433322 -0.4871344149 1.913201284e-21)
(-0.02510236169 -0.3291334584 2.954889469e-21)
(-0.02004611944 0.1460790005 -4.389019746e-23)
(-0.06417267362 0.2112916392 4.416185279e-23)
(-0.05072992591 0.2177091241 9.999114984e-22)
(-0.01939268311 0.2014328549 -8.21124139e-24)
(0.02406726282 0.1808658118 0)
(0.07144018739 0.1606529079 4.361603033e-23)
(0.1189513886 0.1416173005 -2.2725342e-22)
(0.1643465105 0.1232979816 -9.022363524e-23)
(0.2060906887 0.1048058711 3.678350782e-23)
(0.2428327403 0.08507937042 -1.700599369e-23)
(0.2730978278 0.06298086749 3.428140884e-23)
(0.295144027 0.03728995502 -6.589926277e-23)
(0.3066017296 0.006565332671 -9.300215229e-23)
(0.3048934271 -0.03084856998 1.516781518e-22)
(0.286328225 -0.07783875371 0)
(0.24700472 -0.1399133625 1.505849139e-22)
(0.1810500515 -0.2266224259 2.559763709e-22)
(0.09601299338 -0.3443801821 0)
(-0.006713721302 -0.4552111017 -3.675453904e-21)
(-0.01922671956 -0.3777445722 -2.89252032e-21)
(-0.02591757633 0.227689464 -9.51353155e-22)
(-0.03998017554 0.2238261873 -1.388750557e-22)
(0.03655793195 0.1810545226 -2.334911977e-22)
(0.1090329926 0.1450933716 -1.193306405e-22)
(0.181683547 0.117226486 -4.29509322e-23)
(0.2489541089 0.09625995288 9.77948518e-23)
(0.309961828 0.08000878722 -1.407869671e-22)
(0.3645369097 0.06655723204 1.296394165e-22)
(0.4125349092 0.05448777523 -8.614589702e-23)
(0.4535346802 0.04271190466 1.1319517e-25)
(0.4867031198 0.03033179769 1.527017564e-23)
(0.5106703055 0.01654177749 7.993863202e-23)
(0.5235980291 0.0005500709505 -1.81058685e-22)
(0.523132796 -0.01862055294 -1.616880683e-22)
(0.5051978152 -0.04285415826 -4.262585357e-23)
(0.4658472225 -0.07632564481 0)
(0.395252062 -0.1286068622 -1.845940129e-22)
(0.2915938535 -0.2208462161 8.148172572e-22)
(0.1197374838 -0.3525011439 1.631512143e-21)
(0.02670344242 -0.3775486004 2.17260907e-21)
(0.2142914626 0.1347466999 9.864245878e-22)
(0.2776373974 0.09870757296 0)
(0.4316662297 0.05810533711 -2.593943543e-22)
(0.5304778377 0.03846224425 -1.741436074e-22)
(0.6016912632 0.02623258858 0)
(0.657104437 0.01831720572 -6.006995505e-23)
(0.7014963285 0.01313427297 6.374613654e-23)
(0.7375720468 0.009541178289 -1.798922034e-23)
(0.7669009068 0.006804593094 2.88402528e-23)
(0.7901748266 0.00446594764 2.313546915e-23)
(0.8074232244 0.002223375125 0)
(0.8182359524 -0.0001474950369 -2.871747792e-23)
(0.8216313452 -0.00272113652 0)
(0.8162286288 -0.005710628077 2.737487697e-23)
(0.7991287361 -0.009610184384 1.421998168e-23)
(0.7679981904 -0.01500223174 -5.798757565e-23)
(0.7106567166 -0.0250257353 -2.535335051e-22)
(0.6235191264 -0.04204348108 -6.917639106e-22)
(0.4230090249 -0.09183033026 0)
(0.2705672753 -0.1524024781 -2.119438097e-21)
)


// ************************************************************************* //
