/*--------------------------------*- C++ -*----------------------------------*\
  =========                 |
  \\      /  F ield         | OpenFOAM: The Open Source CFD Toolbox
   \\    /   O peration     | Website:  https://openfoam.org
    \\  /    A nd           | Version:  13
     \\/     M anipulation  |
\*---------------------------------------------------------------------------*/
FoamFile
{
    format      ascii;
    class       scalarField;
    location    "44";
    object      p_all;
}
// * * * * * * * * * * * * * * * * * * * * * * * * * * * * * * * * * * * * * //


400
(
-3.645657734e-09
-0.0005297372157
-0.001176258973
-0.001677097619
-0.001912463294
-0.001832925526
-0.00141393169
-0.0006444611609
0.0004664526273
0.001874590239
0.003485499927
0.005148219793
0.006666288028
0.00782947796
0.008464192459
0.008490079765
0.0079633485
0.007090613903
0.006204525278
0.005650814419
0.0005368623124
-1.121027433e-05
-0.0005823080772
-0.0009824762014
-0.001159513435
-0.001086541415
-0.0007423145931
-0.0001116624728
0.0008058544143
0.001981137993
0.003340588003
0.004758992391
0.006066826668
0.007078661564
0.007638987413
0.007674447233
0.007232143369
0.006484618844
0.005693651115
0.005130359799
0.001208700883
0.0005230496747
-8.041925158e-05
-0.00044558899
-0.0006074633368
-0.0005735441766
-0.000328395671
0.0001507128569
0.0008803824009
0.001853342469
0.003019960534
0.004276568014
0.005468522243
0.006414865657
0.00695379398
0.006997372376
0.00657234182
0.005819303258
0.004943655319
0.004210004502
0.001691499875
0.0008073500508
8.611364997e-05
-0.0003224100257
-0.0005319782118
-0.0005829581067
-0.0004634230756
-0.0001383336929
0.0004313352722
0.001265510849
0.002339949331
0.00356713671
0.004792634598
0.005816180547
0.006439473646
0.006530505895
0.006077729005
0.005194739308
0.004067225703
0.003031454243
0.001729242055
0.0006444350317
-0.0002205650432
-0.0007165802011
-0.001024420587
-0.001209626629
-0.001257691649
-0.001115029437
-0.0007132685037
2.051007212e-06
0.001038660544
0.002329030754
0.003715815475
0.004966256165
0.005820417837
0.006068854453
0.005631042514
0.004581089035
0.003104816295
0.001671044315
0.001109688022
-0.0001538277633
-0.001163920475
-0.001777192601
-0.002230903855
-0.002607622987
-0.002883921613
-0.002981291407
-0.002794100364
-0.002222686454
-0.001213906697
0.0001992379179
0.001865456804
0.003516551631
0.004808540258
0.005412498914
0.00512841982
0.003952617722
0.002068224372
0.0001382475186
-0.0003454771656
-0.00175531765
-0.002903587129
-0.00366129782
-0.004312575298
-0.00495080053
-0.005539399569
-0.00597003634
-0.00609171287
-0.005745546325
-0.004811415287
-0.003263936482
-0.001220595479
0.001026711058
0.003034889272
0.004305467624
0.00444170948
0.003283656822
0.0009722896644
-0.001565019614
-0.002773207355
-0.00429073004
-0.005566202338
-0.006494913128
-0.007399617705
-0.008381557769
-0.009390524128
-0.01028662419
-0.01086705759
-0.0108988966
-0.01016889393
-0.008551766546
-0.006088624375
-0.00305759265
5.142724237e-06
0.002384310485
0.003381514816
0.002543871917
-0.0001337940331
-0.003390590785
-0.006257112314
-0.007839009597
-0.009225085941
-0.01034477676
-0.01155393557
-0.01296330593
-0.01451347797
-0.01603602971
-0.01727412801
-0.01790850366
-0.01760507128
-0.01609246147
-0.01327078514
-0.009335064691
-0.004868864546
-0.0008235651101
0.001683795598
0.001701533163
-0.001129553964
-0.005182607172
-0.01081777236
-0.01241648101
-0.01388383109
-0.01519223015
-0.01673092416
-0.01862819575
-0.02082541956
-0.02313405584
-0.02524712084
-0.02675379415
-0.02717815754
-0.02605853045
-0.02308331662
-0.01826265533
-0.01212666849
-0.005817486048
-0.0009569732954
0.0007445395708
-0.00177282748
-0.006590356849
-0.01641287708
-0.01797542405
-0.01946805929
-0.02091365721
-0.0227471299
-0.02513140364
-0.02802384633
-0.03122820509
-0.03439668106
-0.03703083686
-0.03850570497
-0.03813943532
-0.03535510612
-0.02985906612
-0.02197845346
-0.01290553969
-0.004754922238
-0.000246199308
-0.001621279182
-0.006936583827
-0.0229564445
-0.02441925521
-0.02583144987
-0.02727511018
-0.02926601105
-0.03203152702
-0.035563573
-0.03967035197
-0.04397345079
-0.04789685224
-0.05067672758
-0.0514178292
-0.04920649
-0.04339847497
-0.03394373483
-0.02185203628
-0.009559147787
-0.0009222853648
0.0001006342734
-0.005021960569
-0.03036867266
-0.03164023103
-0.03277802717
-0.03394398719
-0.03580983823
-0.03871271321
-0.04269596507
-0.04757659734
-0.05294823167
-0.05816425534
-0.06233348605
-0.06435596458
-0.06302924882
-0.05728840622
-0.04659325193
-0.03151579089
-0.01448034833
-0.0003654066794
0.004736282273
0.001154061965
-0.03867823976
-0.03958489026
-0.0400954041
-0.04051216398
-0.04179690448
-0.04445206603
-0.04857597223
-0.05398009979
-0.06021478495
-0.06655533907
-0.07198923949
-0.07523498433
-0.07482665563
-0.06931335112
-0.05762992204
-0.03972376513
-0.0175998622
0.003265519497
0.01455042293
0.01475049979
-0.04822542714
-0.0483568116
-0.04758899168
-0.04652028833
-0.04659755594
-0.04852309384
-0.05241625474
-0.0580370281
-0.06485114183
-0.07202576841
-0.07841276611
-0.08255433192
-0.08274657367
-0.07720507157
-0.06438895266
-0.04357549687
-0.01601457277
0.01289172725
0.03299078504
0.04030452636
-0.06000899196
-0.0583837588
-0.05512562787
-0.05149429148
-0.04961882751
-0.05032944093
-0.0536570697
-0.05922261696
-0.06633950753
-0.07401594931
-0.08093260884
-0.08543526504
-0.08558011921
-0.0792735547
-0.06456148694
-0.04012022767
-0.006303046053
0.03226997874
0.06446624005
0.08325902686
-0.07627625845
-0.07073324124
-0.06267513235
-0.05498841127
-0.05040207801
-0.04952598228
-0.05208302797
-0.0574277388
-0.06463835433
-0.07250694269
-0.07950327834
-0.08374582019
-0.0830222605
-0.07489594854
-0.05697520296
-0.02734771995
0.01455330256
0.0654762931
0.1143727901
0.1501723185
-0.1041823306
-0.08794996382
-0.06999462147
-0.05627832153
-0.04837898655
-0.04578612036
-0.04759289803
-0.05273382138
-0.05996540536
-0.06782766137
-0.07457243542
-0.07809132895
-0.07589613086
-0.06514556881
-0.04285178088
-0.006196447161
0.04676285728
0.1153275192
0.1914819808
0.2582908028
-0.175984627
-0.1148970557
-0.0736145239
-0.05189065871
-0.04118153859
-0.03757728231
-0.03929013585
-0.04474448411
-0.05232972765
-0.06037419378
-0.0669932393
-0.06993657116
-0.06652597813
-0.0535843524
-0.02738489422
0.01641030675
0.08274031084
0.1773842951
0.3054302461
0.4526890654
-0.3558555152
-0.1552609672
-0.07043567808
-0.04278233293
-0.03135026333
-0.02760411151
-0.02978589076
-0.03597235678
-0.04422109884
-0.05273146327
-0.05958991491
-0.06253558467
-0.05884084215
-0.04517545214
-0.01724709648
0.03081440579
0.1084280378
0.2333632442
0.4348097217
0.735875541
)


// ************************************************************************* //
