/*--------------------------------*- C++ -*----------------------------------*\
  =========                 |
  \\      /  F ield         | OpenFOAM: The Open Source CFD Toolbox
   \\    /   O peration     | Website:  https://openfoam.org
    \\  /    A nd           | Version:  13
     \\/     M anipulation  |
\*---------------------------------------------------------------------------*/
FoamFile
{
    format      ascii;
    class       scalarField;
    location    "44";
    object      p_all;
}
// * * * * * * * * * * * * * * * * * * * * * * * * * * * * * * * * * * * * * //


400
(
2.564900675e-08
-0.0005474795569
-0.0008895317248
-0.00101702713
-0.0009381717609
-0.0006853140155
-0.0002960231543
0.0001937054201
0.0007473403281
0.001324394114
0.001879229476
0.002358991702
0.002708287974
0.002874023159
0.002814664676
0.002512220979
0.001987165484
0.001296637463
0.0006377161027
4.181874076e-05
0.0005881796562
6.878314352e-06
-0.0003568614642
-0.0004991940174
-0.0004685466489
-0.0002914866876
2.608087169e-06
0.0003844506423
0.0008226290636
0.00127987156
0.001716329264
0.00208084895
0.002323062047
0.002395605711
0.002264611134
0.001921306381
0.001392440571
0.0007430697177
0.0001454266478
-0.0005172574623
0.0009524366682
0.0003080246883
-9.32346763e-05
-0.0002395695084
-0.0002334514442
-0.0001049562816
0.0001218758531
0.0004257572245
0.0007829569846
0.001161467738
0.001529490057
0.001832888629
0.002021733376
0.002047302664
0.00187446341
0.001493402096
0.0009281015328
0.0002351221444
-0.0004633425595
-0.001300314309
0.000976144778
0.0002579752534
-0.0001922815075
-0.0003445833831
-0.0003538479905
-0.0002568679148
-7.428209326e-05
0.000181314991
0.0004963817665
0.0008506850302
0.001203031221
0.001510503037
0.001712297853
0.001747882251
0.001568388845
0.001150434966
0.0005058466479
-0.0003186368741
-0.00123396489
-0.002384763626
0.0004804803356
-0.0002850056497
-0.0007639146054
-0.0009156224666
-0.0009366521927
-0.0008682290839
-0.0007253245629
-0.0005083928211
-0.0002171505657
0.0001391564054
0.0005300960429
0.0009073964261
0.001199831386
0.001326512819
0.001211026189
0.0008001776553
7.992225926e-05
-0.0009176763744
-0.0021276585
-0.00365615802
-0.0006863668592
-0.00146715263
-0.001956202032
-0.002107259147
-0.002150041903
-0.002126695323
-0.002042316369
-0.001879695563
-0.001617581843
-0.001245548148
-0.0007791317956
-0.0002628714981
0.000220609508
0.0005614783651
0.0006378219636
0.0003415084987
-0.0003930563216
-0.001564095802
-0.003134880591
-0.00514211867
-0.002661832343
-0.003423548073
-0.00391541469
-0.004080794183
-0.004178163619
-0.00424721901
-0.004278240345
-0.004229188112
-0.004047586232
-0.003689632947
-0.003140777221
-0.002426775531
-0.001633528932
-0.0009034599059
-0.0004248536835
-0.0003987235853
-0.0009882751689
-0.002260618151
-0.004232779392
-0.006828359705
-0.005555031325
-0.006269959401
-0.006768248797
-0.00698219682
-0.007195586354
-0.007443484688
-0.007697193076
-0.007882262954
-0.007902233444
-0.007660677242
-0.00708740917
-0.00615954979
-0.004943798522
-0.003604918632
-0.002413988692
-0.001714573408
-0.001843262672
-0.00301507837
-0.005368514585
-0.008662310941
-0.009435259745
-0.01008159479
-0.01059846619
-0.01091070849
-0.01132611173
-0.01187599583
-0.01251137427
-0.01311975359
-0.01354791921
-0.01362349414
-0.01318261763
-0.01212125986
-0.01042816211
-0.008256692321
-0.005956464385
-0.004062041894
-0.003190307708
-0.003843209273
-0.006426605894
-0.0104917954
-0.01431703415
-0.01487602362
-0.01542301448
-0.01588226035
-0.01659009885
-0.01758023082
-0.01878709318
-0.02005922964
-0.02117772415
-0.02187378471
-0.02185756676
-0.02087244969
-0.01877210606
-0.01562027675
-0.01179524765
-0.008037508632
-0.005360066344
-0.004760324764
-0.007181345681
-0.01197942766
-0.02015454357
-0.02060477209
-0.02117496388
-0.02179696938
-0.02285232473
-0.02439058153
-0.02633945215
-0.02851384297
-0.03062779145
-0.03230373285
-0.03309549413
-0.03254094436
-0.03028272116
-0.02617891817
-0.02052511096
-0.01420413806
-0.008691745453
-0.005726814416
-0.007219460217
-0.01246660774
-0.02685656956
-0.02716233116
-0.0277027712
-0.02842318862
-0.02978938804
-0.03188932538
-0.03465911212
-0.03788987871
-0.04123416933
-0.04420530016
-0.0461883781
-0.04647902833
-0.04446332874
-0.03966027545
-0.03212125948
-0.02269898094
-0.01326678593
-0.006486144472
-0.005808835607
-0.01076543158
-0.03433492803
-0.03441834027
-0.0347896838
-0.03540476926
-0.03689208021
-0.03941023141
-0.04292027531
-0.04719791276
-0.05184031034
-0.05625862879
-0.05967998839
-0.06119115344
-0.05977977783
-0.0546560233
-0.0454412986
-0.03269993799
-0.01845331598
-0.00624612194
-0.001674164967
-0.004873799413
-0.04261006813
-0.04227964177
-0.04219586645
-0.04229618992
-0.04351393731
-0.046116633
-0.05009984984
-0.05522062292
-0.06101530843
-0.06679642299
-0.07164037023
-0.07441327153
-0.07383283173
-0.0686751503
-0.05807221145
-0.04206208237
-0.02244029006
-0.003257456376
0.007346838378
0.008341234762
-0.0520105721
-0.05076122747
-0.04967805418
-0.04857915549
-0.04892702322
-0.05112045433
-0.05517315378
-0.0607965057
-0.06743581671
-0.0742901867
-0.08028306667
-0.084076521
-0.08413095336
-0.07883783848
-0.06684309932
-0.04752370581
-0.02212773234
0.005501532433
0.02471513573
0.03352717654
-0.06365616971
-0.06018946836
-0.05709761536
-0.05376466647
-0.05246581304
-0.05368048808
-0.05736534116
-0.06313854556
-0.07026302174
-0.07780148658
-0.08449317664
-0.08878638935
-0.08889870717
-0.08283997994
-0.06885106174
-0.04562108146
-0.01375175703
0.02441667722
0.0555394316
0.0773556727
-0.08018672504
-0.07107528284
-0.06412154032
-0.05716584612
-0.05343201084
-0.05321610421
-0.05625987225
-0.06191490693
-0.06926005892
-0.07711805011
-0.08401331346
-0.08815276876
-0.08748119793
-0.07965691397
-0.0624797575
-0.03405066744
0.005564725439
0.05859390579
0.1058229467
0.1480676551
-0.110508113
-0.08585541892
-0.07160738606
-0.05897242372
-0.05191483524
-0.04988459482
-0.0521044187
-0.05751058644
-0.0648614205
-0.07271030655
-0.07934172509
-0.0827150193
-0.08052074098
-0.06988763927
-0.04823270071
-0.01272273197
0.03823604856
0.1071320185
0.1779785823
0.2564764214
-0.1684382945
-0.09990958294
-0.0750096728
-0.05479929978
-0.04462045233
-0.04158699917
-0.04371964647
-0.04938359162
-0.05701925972
-0.06497283522
-0.07136370369
-0.07398197358
-0.07013076606
-0.05701423941
-0.03102883654
0.01192920802
0.07559940043
0.1664041697
0.276161949
0.4377042123
-0.3984295794
-0.1381007358
-0.07497183825
-0.04708985145
-0.03355092942
-0.03003174776
-0.03280396935
-0.0392667977
-0.04756059985
-0.05594115908
-0.06250217498
-0.06503123998
-0.06099647214
-0.04697026171
-0.01875704907
0.02993533548
0.1069555932
0.2334271834
0.419880139
0.7800233208
)


// ************************************************************************* //
