/*--------------------------------*- C++ -*----------------------------------*\
  =========                 |
  \\      /  F ield         | OpenFOAM: The Open Source CFD Toolbox
   \\    /   O peration     | Website:  https://openfoam.org
    \\  /    A nd           | Version:  13
     \\/     M anipulation  |
\*---------------------------------------------------------------------------*/
FoamFile
{
    format      ascii;
    class       surfaceScalarField;
    location    "44";
    object      phi;
}
// * * * * * * * * * * * * * * * * * * * * * * * * * * * * * * * * * * * * * //

dimensions      [0 3 -1 0 0 0 0];

internalField   nonuniform List<scalar> 
760
(
-1.321883705e-05
1.321855779e-05
-7.201776734e-05
5.879893419e-05
-0.0001620727014
9.005493904e-05
-0.0002652228755
0.0001031501723
-0.0003682425755
0.0001030196931
-0.0004615044326
9.326185376e-05
-0.000537750083
7.624565321e-05
-0.000591242186
5.349210669e-05
-0.0006175093872
2.626719929e-05
-0.0006135894009
-3.91999472e-06
-0.0005784600646
-3.512934623e-05
-0.0005138428528
-6.461721852e-05
-0.0004246595726
-8.918328267e-05
-0.0003192818433
-0.0001053777283
-0.0002092254563
-0.0001100563825
-0.0001081386131
-0.0001010868339
-2.992499082e-05
-7.821360716e-05
1.414935686e-05
-4.407433324e-05
2.190956025e-05
-7.760200068e-06
2.19095576e-05
-6.870335096e-05
8.192191131e-05
-0.0002457755886
0.0002358711751
-0.0004934732818
0.0003377526407
-0.0007722779753
0.0003819548768
-0.001050409564
0.0003811512817
-0.001303006352
0.0003458586221
-0.001510604457
0.0002838437277
-0.001657872488
0.0002007601143
-0.001733200034
0.0001015947402
-0.001729305788
-7.814225346e-06
-0.001643831462
-0.0001206036592
-0.001481414069
-0.0002270346092
-0.001254381891
-0.0003162154711
-0.0009832949203
-0.0003764647108
-0.000696141656
-0.0003972096453
-0.0004257314775
-0.0003714969925
-0.0002049932564
-0.0002989517999
-5.981228499e-05
-0.0001892552855
-4.921565539e-07
-6.708032048e-05
2.141740778e-05
-0.0001229341904
0.0002048561087
-0.0004149723663
0.0005279093537
-0.0008086682822
0.0007314485528
-0.001247165313
0.0008204519064
-0.001684661792
0.0008186477633
-0.002084430632
0.0007456274649
-0.002416966139
0.0006163792339
-0.002658576818
0.0004423707873
-0.002790992169
0.0002340100822
-0.002802414103
3.607693023e-06
-0.002687902598
-0.0002351151721
-0.002452962001
-0.0004619752141
-0.002114172057
-0.0006550054239
-0.001700374503
-0.0007902622675
-0.001251822522
-0.0008457616172
-0.0008167447758
-0.0008065747165
-0.0004446233323
-0.0006710732169
-0.0001762320851
-0.000457646511
-3.221222486e-05
-0.0002111001646
-1.079480205e-05
-0.0001720783574
0.0003769344738
-0.0005725607657
0.0009283917789
-0.001105967843
0.001264855631
-0.001698036576
0.001412520631
-0.002290597277
0.001411208454
-0.002837254718
0.001292284899
-0.003300217668
0.001079342182
-0.003648292498
0.0007904456205
-0.00385633943
0.0004420570169
-0.00390581665
5.308491368e-05
-0.003787748198
-0.0003531836324
-0.003504025307
-0.0007456981184
-0.003071272867
-0.001087757876
-0.002522631157
-0.00133890398
-0.001907996395
-0.001460396366
-0.001290905691
-0.001423665393
-0.0007407542848
-0.001221224592
-0.0003202709135
-0.0008781298596
-7.110223098e-05
-0.0004602688258
-8.189701968e-05
-0.0002170221219
0.0005939565973
-0.0007188332795
0.001430202958
-0.001385655829
0.001931678195
-0.002127123672
0.002153988478
-0.002874374356
0.002158459132
-0.003573195647
0.001991106179
-0.004178979724
0.001685126249
-0.004653584841
0.001265050735
-0.004964199153
0.0007526713335
-0.005084017905
0.0001729036707
-0.004995023808
-0.0004421777324
-0.00469118949
-0.001049532448
-0.004183518597
-0.001595428784
-0.003504390191
-0.002018032393
-0.002710450422
-0.002254336126
-0.001881578122
-0.002252537673
-0.00111323328
-0.001989569411
-0.0005008210996
-0.001490542025
-0.0001191421313
-0.000841947778
-0.000201039146
-0.0002573667735
0.0008513233717
-0.0008513399027
0.002024176097
-0.001642296867
0.002722635172
-0.002526557546
0.003038249168
-0.00342690148
0.00305880307
-0.004283389144
0.002847593838
-0.005046215213
0.00244795231
-0.005671018624
0.00188985414
-0.006116751988
0.001198404696
-0.006345982461
0.0004021341437
-0.006327843884
-0.0004603163152
-0.006042476741
-0.001334899606
-0.005488324182
-0.002149581363
-0.004689982381
-0.002816374209
-0.003705727893
-0.003238590619
-0.002631183576
-0.003327081984
-0.001594227057
-0.003026525923
-0.0007363872677
-0.002348381811
-0.0001821206568
-0.001396214384
-0.0003831598053
-0.0002911841566
0.00114250754
-0.0009641253397
0.002697117288
-0.001864163906
0.003622673746
-0.002878145863
0.004052231131
-0.00392346489
0.004104122099
-0.00493700196
0.003861130907
-0.005865889249
0.003376839595
-0.006661002514
0.0026849674
-0.007273440239
0.001810842419
-0.007653973898
0.0007826677989
-0.007755806331
-0.0003584838909
-0.0075397891
-0.001550916855
-0.006984028116
-0.002705342369
-0.006095814869
-0.003704587478
-0.004925704604
-0.004408700899
-0.003579480171
-0.004673306426
-0.002220388393
-0.004385617706
-0.001050845739
-0.003517924472
-0.0002684677976
-0.002178592328
-0.0006516276084
-0.0003159656016
0.001458473157
-0.00104873766
0.003429889361
-0.002034531867
0.004608467962
-0.003154904003
0.00517260327
-0.004325133406
0.005274351501
-0.005481849625
0.005017847122
-0.006571932533
0.004466922498
-0.007544121338
0.003657156202
-0.008343811583
0.002610532663
-0.008911130768
0.001349986982
-0.009182806619
-8.680804599e-05
-0.009097013205
-0.001636710283
-0.00860458472
-0.003197770873
-0.007684199496
-0.004624972721
-0.006364068834
-0.005728831578
-0.004746043718
-0.006291331553
-0.003022882446
-0.006108778987
-0.001469581399
-0.005071225528
-0.0003882445639
-0.003259929171
-0.001039872177
-0.0003291956126
0.001787668778
-0.001096443059
0.004197136829
-0.002135079732
0.005647104645
-0.003325368494
0.006362892037
-0.004583651745
0.006532634751
-0.005849373519
0.00628356889
-0.007072575167
0.005690124139
-0.008203824998
0.004788406029
-0.009187258576
0.003593966242
-0.009956893893
0.002119622303
-0.01043606971
0.0003923677762
-0.01054225003
-0.001530529973
-0.0101950353
-0.003544985604
-0.009334089504
-0.00548591853
-0.007946629321
-0.007116291769
-0.006105927011
-0.00813203387
-0.004012930398
-0.008201775606
-0.002014593057
-0.007069562875
-0.0005528022408
-0.004721719995
-0.001592674421
-0.0003297928699
0.002117461653
-0.001101701855
0.004969045831
-0.002151423391
0.006696826192
-0.003361077975
0.007572546627
-0.004650845742
0.007822402521
-0.005965957051
0.007598680195
-0.007263379593
0.006987546675
-0.008500566152
0.006025592585
-0.009627011995
0.004720412086
-0.01057860293
0.003071213247
-0.01127459548
0.001088360337
-0.01161814899
-0.001186976458
-0.0115016293
-0.003661505286
-0.01082052639
-0.006167021441
-0.009503001603
-0.008433816557
-0.007560609019
-0.01007442645
-0.005160873415
-0.01060151121
-0.002696115636
-0.009534320658
-0.0007741503572
-0.006643685279
-0.00236682478
-0.0003199349322
0.002437396593
-0.001066686717
0.005715797626
-0.002080423935
0.007710563418
-0.003246814659
0.008738937358
-0.004492308057
0.009067895924
-0.005770873459
0.008877245597
-0.007050316283
0.008266989496
-0.00830054231
0.007275818609
-0.009484302234
0.005904172011
-0.01054996273
0.004136873753
-0.01142562084
0.001964018449
-0.01201417233
-0.0005984249566
-0.01219379472
-0.003481882891
-0.01182096895
-0.006539847202
-0.01075537874
-0.009499406763
-0.008913750716
-0.01191605447
-0.006370857886
-0.01314440404
-0.003498965219
-0.01240621333
-0.001063151397
-0.009079499107
-0.003429976181
-0.0003074094169
0.002744806021
-0.001006587455
0.006414975669
-0.001938354788
0.008642330756
-0.002991898946
0.009792481525
-0.004102813424
0.01017881041
-0.005237448939
0.01001188112
-0.00637862797
0.009408168527
-0.007514083757
0.008411274392
-0.008627331716
0.007017419968
-0.009689844117
0.005199386155
-0.01065314229
0.002927316624
-0.01143756775
0.000186000506
-0.01192945611
-0.002989994527
-0.01196499041
-0.006504312902
-0.01134373895
-0.01012065823
-0.009868967797
-0.01339082562
-0.007460114258
-0.01555325759
-0.004363834576
-0.01550249302
-0.001425535642
-0.01201779805
-0.004855511828
-0.0003089282493
0.003053734278
-0.0009555674103
0.00706161483
-0.001768490018
0.009455253367
-0.002639390529
0.01066338205
-0.003518262002
0.01105768189
-0.00438972257
0.01088334169
-0.005256719163
0.01027516512
-0.006129514481
0.009284069707
-0.007017707061
0.007905612543
-0.007923326606
0.006105005695
-0.008832213186
0.003836203201
-0.009704214469
0.001058001785
-0.01045072629
-0.002243482711
-0.01092411999
-0.006030919202
-0.01089502843
-0.01014974979
-0.0100648881
-0.01422096596
-0.008157305505
-0.01746084019
-0.005167631646
-0.01849216688
-0.001854348999
-0.0153310807
-0.006709860833
-0.0003552700499
0.00340900433
-0.0009733331651
0.007679677939
-0.001646057432
0.01012797764
-0.002268710385
0.01128603501
-0.002816840005
0.01160581152
-0.003303693598
0.01137019529
-0.003759409994
0.01073088152
-0.004220924672
0.009745584386
-0.004726146842
0.008410834711
-0.005309762614
0.006688621463
-0.005996656545
0.004523097128
-0.006791798176
0.001853143412
-0.00766058549
-0.001374695402
-0.00850302929
-0.005188475407
-0.009113178107
-0.009539600981
-0.009142508041
-0.01419163603
-0.008128400645
-0.01847494759
-0.005711156565
-0.02090941097
-0.002318284783
-0.01872395249
-0.009028145622
-0.0005003770247
0.003909381349
-0.001151296492
0.008330597389
-0.001674821041
0.01065150218
-0.001981640332
0.01159285431
-0.002095672437
0.01171984364
-0.002075735615
0.01135025848
-0.00198847711
0.01064362302
-0.001901151207
0.00965825849
-0.001878927006
0.008388610518
-0.00198597098
0.006795665444
-0.002282466809
0.004819592962
-0.002818755586
0.002389432192
-0.003622152044
-0.0005712989429
-0.004668842735
-0.004141784716
-0.005834634821
-0.008373808897
-0.006807663619
-0.01321860723
-0.007016668761
-0.01826594246
-0.005716400995
-0.02220967874
-0.00273956708
-0.02170078642
-0.01176771271
-0.0008308853768
0.004740266715
-0.001604832882
0.009104544869
-0.001950979398
0.0109976487
-0.00183938281
0.01148125773
-0.001385434833
0.01126589567
-0.0007181316616
0.01068295531
4.821335064e-05
0.00987727802
0.0008164048507
0.008890067003
0.00149536082
0.007709654565
0.001998424373
0.006292601907
0.002238517765
0.004579499585
0.002128355138
0.002499594832
0.001583160287
-2.610408326e-05
0.0005450317161
-0.003103656138
-0.0009843144513
-0.006844462725
-0.00282840167
-0.01137452001
-0.0044591259
-0.01663521823
-0.004810489483
-0.02185831517
-0.002944290904
-0.02356698501
-0.01471200361
-0.001465682537
0.006205949235
-0.002379876685
0.01001873899
-0.002373444917
0.01099121692
-0.00160354191
0.01071135472
-0.0003496263261
0.01001198009
0.001163642682
0.00916968631
0.002771842195
0.00826907852
0.004349534334
0.00731237488
0.005791623965
0.006267564954
0.006998015211
0.005086210681
0.007865493616
0.003712021199
0.008282285651
0.002082802813
0.008123822574
0.0001323590078
0.007264497076
-0.002244330631
0.005585213327
-0.00516517897
0.003073873243
-0.008863179927
7.897206088e-05
-0.01364031705
-0.002445747296
-0.01933359581
-0.002601077994
-0.02341165431
-0.01731308161
-0.002365504014
0.008571453229
-0.002963808743
0.01061704371
-0.001922814071
0.009950222246
8.111537267e-05
0.008707425272
0.002534887263
0.007558208188
0.005140255939
0.006564317629
0.007719753865
0.005689580597
0.01015462186
0.004877506896
0.01234957387
0.004072612955
0.01421200269
0.003223781885
0.01564054059
0.002283483311
0.01651758934
0.001205754077
0.0166971
-4.715164022e-05
0.01602712654
-0.001574357158
0.01430509029
-0.003443142714
0.01133283094
-0.005890920576
0.007055613843
-0.009363099945
0.002201623708
-0.01447960568
-0.001027320524
-0.02018271009
-0.01834040214
-0.002150342897
0.01072179611
-7.199467311e-05
0.008538695488
0.003741898413
0.006136329143
0.007719772817
0.004729550844
0.01156187102
0.003716109957
0.01514101061
0.002985178031
0.01839885627
0.002431734929
0.02130155568
0.001974807484
0.0238124339
0.00156173474
0.02587973505
0.001156480746
0.02743056923
0.0007326491484
0.02836472842
0.0002715949029
0.02857561766
-0.0002580408743
0.02788766542
-0.0008864049022
0.02609934141
-0.001654818705
0.02290826576
-0.002699844915
0.01790696691
-0.00436180109
0.01076690819
-0.007339546967
0.002912180384
-0.01232798228
-0.01542822175
0.0107217961
0.01926049157
0.0253968207
0.03012637153
0.03384248147
0.0368276595
0.03925939443
0.04123420192
0.04279593666
0.04395241742
0.04468506657
0.04495666148
0.04469862061
0.04381221572
0.04215739701
0.0394575521
0.03509575101
0.02775620404
0.01542822175
)
;

boundaryField
{
    movingWall
    {
        type            calculated;
        value           uniform 0;
    }
    fixedWalls
    {
        type            calculated;
        value           uniform 0;
    }
    frontAndBack
    {
        type            empty;
    }
}


// ************************************************************************* //
