/*--------------------------------*- C++ -*----------------------------------*\
  =========                 |
  \\      /  F ield         | OpenFOAM: The Open Source CFD Toolbox
   \\    /   O peration     | Website:  https://openfoam.org
    \\  /    A nd           | Version:  13
     \\/     M anipulation  |
\*---------------------------------------------------------------------------*/
FoamFile
{
    format      ascii;
    class       surfaceScalarField;
    location    "44";
    object      phi_0;
}
// * * * * * * * * * * * * * * * * * * * * * * * * * * * * * * * * * * * * * //

dimensions      [0 3 -1 0 0 0 0];

internalField   nonuniform List<scalar> 
760
(
-1.321884715e-05
1.321854867e-05
-7.201777183e-05
5.879892667e-05
-0.0001620727109
9.005493886e-05
-0.0002652228836
0.0001031501887
-0.0003682425661
0.0001030197137
-0.0004615044078
9.326185337e-05
-0.0005377500629
7.624562254e-05
-0.0005912421886
5.349206462e-05
-0.0006175094101
2.626717661e-05
-0.0006135894243
-3.919982135e-06
-0.0005784600701
-3.512931089e-05
-0.0005138428395
-6.461718482e-05
-0.0004246595557
-8.918327337e-05
-0.0003192818375
-0.0001053777479
-0.0002092254614
-0.0001100564186
-0.0001081386144
-0.0001010868698
-2.992497487e-05
-7.821363292e-05
1.41493904e-05
-4.407434721e-05
2.190958693e-05
-7.760197274e-06
2.19095498e-05
-6.870336115e-05
8.192191384e-05
-0.000245775585
0.0002358711748
-0.0004934732741
0.0003377526245
-0.0007722779852
0.0003819548599
-0.001050409588
0.0003811512869
-0.001303006367
0.0003458586545
-0.001510604446
0.0002838437684
-0.001657872457
0.0002007601364
-0.001733200007
0.000101594732
-0.001729305783
-7.814258529e-06
-0.001643831474
-0.000120603679
-0.001481414089
-0.0002270346124
-0.001254381906
-0.0003162154645
-0.0009832949267
-0.0003764647116
-0.0006961416553
-0.0003972096678
-0.0004257314685
-0.0003714970378
-0.0002049932346
-0.0002989518556
-5.981225744e-05
-0.0001892553339
-4.921539137e-07
-6.708034576e-05
2.141737283e-05
-0.0001229342041
0.0002048561148
-0.0004149723789
0.0005279093746
-0.0008086682746
0.0007314485581
-0.001247165296
0.0008204518891
-0.001684661782
0.0008186477381
-0.002084430637
0.0007456274537
-0.002416966153
0.0006163792469
-0.002658576828
0.0004423708152
-0.002790992169
0.0002340101063
-0.002802414087
3.607707674e-06
-0.002687902586
-0.0002351151735
-0.002452962003
-0.0004619752178
-0.002114172076
-0.0006550054222
-0.001700374533
-0.0007902622634
-0.001251822548
-0.0008457616199
-0.0008167447805
-0.0008065747309
-0.0004446233044
-0.0006710732384
-0.0001762320337
-0.0004576465329
-3.221220465e-05
-0.0002111001866
-1.079483391e-05
-0.0001720783594
0.0003769344649
-0.0005725607935
0.0009283917865
-0.001105967861
0.001264855652
-0.001698036569
0.001412520648
-0.002290597252
0.001411208455
-0.002837254694
0.001292284887
-0.003300217663
0.001079342168
-0.003648292512
0.0007904456177
-0.003856339443
0.0004420570286
-0.003905816653
5.308493416e-05
-0.003787748189
-0.0003531836109
-0.003504025302
-0.0007456980976
-0.003071272881
-0.001087757855
-0.002522631192
-0.001338903956
-0.001907996431
-0.00146039634
-0.001290905702
-0.001423665368
-0.0007407542572
-0.001221224571
-0.000320270861
-0.0008781298497
-7.11022108e-05
-0.0004602688324
-8.189703744e-05
-0.0002170221079
0.0005939565884
-0.000718833291
0.001430202937
-0.001385655851
0.001931678192
-0.002127123683
0.00215398849
-0.002874374347
0.002158459148
-0.003573195627
0.001991106187
-0.004178979707
0.001685126243
-0.004653584836
0.001265050721
-0.004964199156
0.0007526713222
-0.005084017906
0.0001729036699
-0.004995023801
-0.00044217772
-0.004691189484
-0.001049532426
-0.004183518607
-0.001595428755
-0.003504390222
-0.002018032359
-0.002710450459
-0.002254336086
-0.001881578139
-0.002252537629
-0.001113233264
-0.001989569372
-0.0005008210636
-0.001490542
-0.0001191421173
-0.0008419477724
-0.000201039147
-0.0002573667665
0.0008513233806
-0.0008513398969
0.002024176084
-0.00164229687
0.002722635155
-0.002526557552
0.003038249158
-0.003426901482
0.003058803072
-0.00428338914
0.002847593846
-0.005046215206
0.002447952315
-0.005671018617
0.001889854135
-0.006116751979
0.001198404683
-0.006345982447
0.0004021341291
-0.006327843865
-0.0004603163234
-0.006042476728
-0.001334899605
-0.005488324186
-0.002149581352
-0.004689982405
-0.00281637419
-0.003705727926
-0.003238590593
-0.002631183599
-0.003327081953
-0.001594227058
-0.003026525893
-0.0007363872534
-0.002348381789
-0.0001821206502
-0.001396214373
-0.0003831597954
-0.000291184171
0.001142507546
-0.0009641253405
0.002697117294
-0.001864163901
0.00362267374
-0.002878145855
0.004052231118
-0.003923464884
0.00410412209
-0.004937001961
0.003861130905
-0.005865889255
0.003376839598
-0.006661002517
0.002684967402
-0.007273440232
0.001810842412
-0.007653973876
0.000782667783
-0.007755806301
-0.0003584839128
-0.007539789076
-0.001550916877
-0.00698402811
-0.002705342388
-0.006095814884
-0.00370458749
-0.004925704632
-0.004408700902
-0.003579480196
-0.004673306421
-0.002220388406
-0.004385617696
-0.001050845739
-0.003517924461
-0.0002684677957
-0.002178592319
-0.000651627596
-0.0003159656193
0.001458473148
-0.001048737675
0.003429889368
-0.002034531869
0.004608467965
-0.003154903993
0.005172603267
-0.004325133392
0.005274351496
-0.00548184962
0.005017847119
-0.006571932541
0.004466922499
-0.007544121351
0.003657156205
-0.008343811587
0.002610532661
-0.008911130753
0.001349986972
-0.00918280659
-8.680806806e-05
-0.009097013177
-0.001636710314
-0.008604584706
-0.003197770908
-0.007684199502
-0.004624972754
-0.006364068852
-0.005728831602
-0.004746043739
-0.006291331567
-0.00302288246
-0.006108778992
-0.001469581403
-0.005071225527
-0.0003882445637
-0.003259929165
-0.001039872168
-0.0003291956155
0.001787668768
-0.001096443076
0.004197136824
-0.002135079741
0.005647104645
-0.003325368487
0.006362892036
-0.004583651729
0.006532634751
-0.005849373509
0.006283568891
-0.007072575173
0.005690124143
-0.008203825016
0.004788406035
-0.009187258591
0.003593966246
-0.009956893892
0.002119622303
-0.0104360697
0.0003923677663
-0.01054225
-0.001530529993
-0.01019503529
-0.003544985631
-0.0093340895
-0.005485918559
-0.007946629328
-0.007116291793
-0.006105927022
-0.008132033886
-0.004012930406
-0.008201775614
-0.002014593059
-0.007069562877
-0.0005528022407
-0.004721719993
-0.001592674417
-0.0003297928651
0.002117461655
-0.001101701867
0.004969045823
-0.0021514234
0.006696826184
-0.003361077968
0.00757254662
-0.004650845725
0.007822402516
-0.005965957038
0.007598680194
-0.007263379597
0.006987546678
-0.008500566172
0.006025592592
-0.009627012016
0.004720412096
-0.01057860294
0.003071213258
-0.01127459548
0.001088360345
-0.01161814898
-0.001186976456
-0.01150162929
-0.003661505292
-0.01082052638
-0.006167021452
-0.009503001601
-0.008433816568
-0.007560609021
-0.01007442646
-0.005160873416
-0.01060151122
-0.002696115634
-0.009534320659
-0.0007741503574
-0.006643685279
-0.00236682478
-0.0003199349354
0.002437396603
-0.001066686731
0.005715797625
-0.002080423942
0.00771056341
-0.003246814649
0.008738937347
-0.004492308037
0.009067895913
-0.005770873443
0.008877245589
-0.007050316282
0.008266989492
-0.008300542325
0.007275818612
-0.009484302254
0.005904172022
-0.01054996275
0.00413687377
-0.01142562084
0.001964018468
-0.01201417232
-0.0005984249395
-0.01219379471
-0.00348188288
-0.01182096894
-0.006539847197
-0.01075537873
-0.009499406762
-0.008913750713
-0.01191605447
-0.006370857883
-0.01314440404
-0.003498965216
-0.01240621333
-0.001063151398
-0.009079499107
-0.003429976182
-0.0003074094311
0.002744806031
-0.001006587477
0.006414975675
-0.001938354798
0.008642330755
-0.002991898936
0.009792481518
-0.004102813401
0.0101788104
-0.005237448918
0.0100118811
-0.006378627963
0.009408168515
-0.007514083764
0.008411274387
-0.00862733173
0.007017419971
-0.009689844129
0.005199386165
-0.0106531423
0.002927316639
-0.01143756775
0.0001860005223
-0.01192945611
-0.002989994514
-0.0119649904
-0.006504312893
-0.01134373894
-0.01012065822
-0.009868967793
-0.01339082562
-0.007460114255
-0.01555325758
-0.004363834574
-0.01550249302
-0.001425535643
-0.01201779805
-0.004855511828
-0.0003089282656
0.003053734287
-0.0009555674405
0.007061614841
-0.001768490036
0.009455253378
-0.002639390525
0.01066338205
-0.003518261981
0.01105768189
-0.004389722546
0.01088334168
-0.005256719149
0.01027516511
-0.006129514478
0.009284069694
-0.007017707066
0.007905612534
-0.007923326613
0.006105005691
-0.008832213194
0.0038362032
-0.009704214474
0.001058001787
-0.01045072629
-0.00224348271
-0.01092411999
-0.006030919201
-0.01089502843
-0.01014974979
-0.0100648881
-0.01422096596
-0.008157305502
-0.01746084019
-0.005167631644
-0.01849216688
-0.001854348999
-0.0153310807
-0.006709860832
-0.0003552700615
0.003409004341
-0.0009733331956
0.00767967795
-0.001646057455
0.01012797766
-0.002268710391
0.01128603503
-0.002816839994
0.01160581154
-0.003303693579
0.01137019529
-0.003759409979
0.01073088151
-0.004220924665
0.009745584367
-0.004726146842
0.008410834691
-0.005309762617
0.006688621445
-0.00599665655
0.004523097113
-0.006791798181
0.001853143399
-0.007660585495
-0.001374695412
-0.008503029293
-0.005188475415
-0.009113178106
-0.009539600987
-0.009142508039
-0.01419163603
-0.008128400642
-0.01847494759
-0.005711156563
-0.02090941097
-0.002318284782
-0.01872395249
-0.00902814562
-0.0005003770325
0.003909381359
-0.001151296515
0.008330597396
-0.001674821061
0.0106515022
-0.001981640346
0.01159285433
-0.002095672442
0.01171984366
-0.00207573561
0.01135025849
-0.001988477103
0.01064362302
-0.001901151201
0.009658258474
-0.001878927003
0.008388610497
-0.00198597098
0.006795665423
-0.002282466811
0.004819592943
-0.002818755589
0.002389432176
-0.003622152046
-0.0005712989551
-0.004668842735
-0.004141784724
-0.005834634819
-0.008373808902
-0.006807663615
-0.01321860724
-0.007016668756
-0.01826594246
-0.005716400992
-0.02220967874
-0.002739567079
-0.02170078642
-0.0117677127
-0.0008308853838
0.004740266712
-0.001604832893
0.009104544866
-0.001950979408
0.0109976487
-0.001839382826
0.01148125774
-0.001385434852
0.01126589569
-0.0007181316748
0.01068295533
4.821334542e-05
0.009877278029
0.0008164048513
0.008890067005
0.001495360823
0.007709654562
0.001998424377
0.006292601902
0.002238517768
0.00457949958
0.002128355139
0.002499594828
0.001583160289
-2.610408547e-05
0.0005450317196
-0.003103656139
-0.0009843144459
-0.006844462726
-0.002828401664
-0.01137452001
-0.004459125893
-0.01663521823
-0.004810489479
-0.02185831516
-0.002944290901
-0.023566985
-0.01471200361
-0.001465682543
0.00620594921
-0.002379876683
0.01001873898
-0.002373444918
0.01099121692
-0.001603541923
0.01071135472
-0.0003496263464
0.01001198009
0.001163642662
0.009169686322
0.002771842181
0.008269078537
0.004349534329
0.0073123749
0.005791623966
0.006267564974
0.006998015216
0.005086210699
0.007865493621
0.003712021215
0.008282285656
0.002082802826
0.008123822578
0.0001323590188
0.007264497082
-0.002244330622
0.005585213334
-0.005165178963
0.00307387325
-0.008863179921
7.897206522e-05
-0.01364031704
-0.002445747292
-0.01933359581
-0.002601077992
-0.02341165431
-0.01731308161
-0.002365504012
0.008571453192
-0.002963808731
0.01061704369
-0.001922814063
0.009950222235
8.11153648e-05
0.008707425266
0.002534887248
0.007558208192
0.005140255925
0.006564317645
0.007719753856
0.005689580622
0.01015462186
0.004877506927
0.01234957387
0.004072612986
0.01421200269
0.003223781914
0.01564054059
0.002283483336
0.01651758934
0.001205754097
0.0166971
-4.715162506e-05
0.01602712654
-0.001574357145
0.0143050903
-0.003443142704
0.01133283095
-0.005890920569
0.007055613849
-0.009363099939
0.002201623712
-0.01447960568
-0.001027320523
-0.02018271008
-0.01834040213
-0.002150342884
0.01072179609
-7.199464806e-05
0.008538695473
0.00374189843
0.006136329136
0.007719772821
0.004729550845
0.01156187102
0.003716109964
0.0151410106
0.002985178043
0.01839885626
0.002431734945
0.02130155568
0.0019748075
0.0238124339
0.001561734756
0.02587973505
0.001156480758
0.02743056923
0.0007326491583
0.02836472841
0.0002715949103
0.02857561766
-0.000258040868
0.02788766542
-0.000886404897
0.02609934142
-0.001654818701
0.02290826576
-0.002699844912
0.01790696691
-0.004361801089
0.01076690819
-0.007339546966
0.002912180384
-0.01232798228
-0.01542822175
0.01072179612
0.0192604916
0.02539682072
0.03012637154
0.03384248147
0.03682765949
0.03925939442
0.04123420191
0.04279593666
0.04395241741
0.04468506657
0.04495666148
0.04469862061
0.04381221572
0.04215739702
0.0394575521
0.03509575101
0.02775620404
0.01542822175
)
;

boundaryField
{
    movingWall
    {
        type            calculated;
        value           uniform 0;
    }
    fixedWalls
    {
        type            calculated;
        value           uniform 0;
    }
    frontAndBack
    {
        type            empty;
    }
}


// ************************************************************************* //
