/*--------------------------------*- C++ -*----------------------------------*\
  =========                 |
  \\      /  F ield         | OpenFOAM: The Open Source CFD Toolbox
   \\    /   O peration     | Website:  https://openfoam.org
    \\  /    A nd           | Version:  13
     \\/     M anipulation  |
\*---------------------------------------------------------------------------*/
FoamFile
{
    format      ascii;
    class       volVectorField;
    location    "44";
    object      U;
}
// * * * * * * * * * * * * * * * * * * * * * * * * * * * * * * * * * * * * * //

dimensions      [0 1 -1 0 0 0 0];

internalField   nonuniform List<vector> 
400
(
(1.100681032e-05 -3.783132537e-05 0)
(-0.0006660940726 0.0004130429116 -1.551346244e-23)
(-0.002185373557 0.0009203936608 0)
(-0.004047831754 0.001312780877 0)
(-0.005971867745 0.001535065875 6.845793985e-25)
(-0.007762783412 0.001569848118 4.150905503e-24)
(-0.009284545844 0.001423563848 -7.373774132e-24)
(-0.01043594204 0.00111972337 7.530289042e-24)
(-0.01113681474 0.0006960825931 -2.095373554e-25)
(-0.01132711166 0.000203077736 -3.994634052e-24)
(-0.01097177289 -0.0003002332252 5.803584394e-24)
(-0.0100723285 -0.0007475160013 -5.929519525e-23)
(-0.008679881005 -0.001075562459 -6.552652156e-23)
(-0.006902854025 -0.001233044359 -7.784270793e-23)
(-0.004910738875 -0.00119263869 4.573568284e-24)
(-0.002927232259 -0.0009619207059 -4.137913022e-24)
(-0.001205299129 -0.0005912119569 -1.998739459e-22)
(-1.906841354e-05 -0.0001698831512 0)
(0.0005181539152 0.0001720855529 1.509544749e-25)
(0.0002227513774 0.0003059788744 -2.552259837e-24)
(-0.0002633622941 0.000828970584 1.382940528e-25)
(-0.002703304283 0.003383842575 1.561144971e-23)
(-0.006907275968 0.005604501713 1.555413733e-25)
(-0.01195231909 0.007008207615 -8.495725689e-25)
(-0.01713504416 0.007553776183 1.162190373e-24)
(-0.02197535463 0.007294200301 1.306963545e-23)
(-0.02611076151 0.006321895179 1.387726312e-24)
(-0.02926564826 0.004754194059 -7.282038208e-24)
(-0.03122673116 0.002737152383 1.015245122e-23)
(-0.0318420108 0.0004524061525 4.509978637e-24)
(-0.03102761521 -0.001884144503 -6.318856529e-24)
(-0.02879316704 -0.004023029247 2.961573402e-24)
(-0.02527138459 -0.005708354152 3.895503986e-23)
(-0.02073195013 -0.006707409253 -1.954751952e-24)
(-0.01558962781 -0.006854140239 3.754447106e-24)
(-0.01038513516 -0.006097464968 -9.740860871e-23)
(-0.005730272754 -0.004546187662 9.637585474e-23)
(-0.002233367026 -0.002507420229 -3.961094015e-25)
(-0.0001817752099 -0.0005023730348 4.060993589e-25)
(8.343532696e-05 0.0006099256298 0)
(-0.0004188230993 0.002935079983 -2.91037042e-25)
(-0.004647874142 0.008804015946 1.702011709e-23)
(-0.01137196012 0.01324042504 -8.284391772e-24)
(-0.01932729116 0.01579204209 -2.07548113e-25)
(-0.02747411748 0.01653000116 2.038943742e-25)
(-0.03511778877 0.01564441731 6.811700491e-27)
(-0.04171344869 0.01335997641 -1.220234273e-24)
(-0.04683571786 0.009919771411 -4.551203919e-25)
(-0.05014989015 0.005602433579 -1.063064096e-23)
(-0.05141232021 0.000744420741 0)
(-0.05047793386 -0.004241780548 0)
(-0.04733706396 -0.008887187337 2.671005817e-23)
(-0.04215928021 -0.01268176979 2.813009258e-23)
(-0.03531437544 -0.01513605204 -1.646152089e-24)
(-0.02738996386 -0.01586189578 4.845823582e-23)
(-0.01917006004 -0.01467334187 9.419166944e-23)
(-0.01156090814 -0.01169360405 3.975573776e-23)
(-0.005465412284 -0.007450743304 4.141583935e-25)
(-0.001451099495 -0.00293604362 1.073889473e-25)
(-9.072722729e-05 0.0002258771064 0)
(-0.000502463041 0.006045350614 -4.248860029e-23)
(-0.006402739686 0.01637075653 -1.692236114e-23)
(-0.01553502439 0.02355933705 8.211238647e-24)
(-0.02627912093 0.0274416276 0)
(-0.03728746837 0.0283210232 0)
(-0.04769037587 0.02658772652 0)
(-0.05679663145 0.02263120405 -4.467131778e-26)
(-0.06405384153 0.0168360931 -2.136724038e-24)
(-0.06901081636 0.009622183658 0)
(-0.07130828023 0.001491049773 1.635398799e-24)
(-0.07070853684 -0.006936504183 2.802739053e-25)
(-0.06713039599 -0.01493018897 -2.810586652e-25)
(-0.06069905803 -0.0216672824 0)
(-0.05180750726 -0.02631605848 4.133257195e-23)
(-0.04114991841 -0.02816070945 -4.681537438e-23)
(-0.02971970345 -0.02677372262 -2.761892391e-23)
(-0.01873716749 -0.02221530505 -3.960718088e-23)
(-0.009488028757 -0.01521922148 7.795859e-25)
(-0.002976880073 -0.00729819417 9.790411715e-23)
(-0.000231879785 -0.0008661675332 0)
(-0.0005316131907 0.01009501664 4.269520952e-23)
(-0.007983592854 0.02595219672 4.785311619e-25)
(-0.01939687486 0.0364288299 -4.676017057e-25)
(-0.03282382494 0.04185520894 0)
(-0.04664689095 0.04289485428 7.782978999e-25)
(-0.05985229812 0.04020074229 -7.675064943e-25)
(-0.07163291562 0.03434741827 3.672285716e-23)
(-0.08132751448 0.02585664178 1.84819262e-23)
(-0.08836601266 0.01527298366 6.238815314e-24)
(-0.09225469705 0.003246146722 -1.637304058e-24)
(-0.09260379935 -0.009407833032 0)
(-0.08917555665 -0.02167478095 4.370592308e-25)
(-0.08195979426 -0.03236745143 1.009006815e-23)
(-0.07126885626 -0.0402125023 -4.349288219e-23)
(-0.05782018989 -0.04402046413 1.932885174e-24)
(-0.04278583094 -0.04294829402 4.217198247e-23)
(-0.02775450405 -0.03683346924 -3.841639677e-25)
(-0.01455062351 -0.02652720931 0)
(-0.004859462464 -0.0140845442 5.436538424e-23)
(-0.0003641484074 -0.002846952632 -2.565081674e-22)
(-0.0005272211298 0.01499927763 9.841550929e-23)
(-0.009377925464 0.0373902243 -4.907784093e-25)
(-0.02288182795 0.05170223199 0)
(-0.03883043571 0.05894183333 0)
(-0.05538656861 0.06025574823 -8.732111747e-23)
(-0.07142876811 0.05661901242 -8.49908485e-23)
(-0.08606654338 0.04880168923 -4.067540318e-23)
(-0.09855086223 0.03743980622 -1.504361408e-23)
(-0.1081945335 0.02315984014 -5.368859485e-24)
(-0.1143444752 0.00670967922 -8.174973865e-24)
(-0.116404623 -0.01093292203 6.601097882e-24)
(-0.113893742 -0.0284894512 8.826647248e-24)
(-0.1065486999 -0.04437046344 -1.892313874e-23)
(-0.09446804244 -0.05675333849 4.607453238e-24)
(-0.07826857078 -0.06378298729 0)
(-0.0592289557 -0.06393495451 -1.5728552e-23)
(-0.03933981981 -0.05653816271 -2.429390729e-26)
(-0.0211418885 -0.04235809076 0)
(-0.007318702872 -0.02398229342 -1.520651492e-22)
(-0.0005216165932 -0.005925544161 6.056277253e-22)
(-0.0004990821515 0.02064574573 -9.774502665e-23)
(-0.01052950989 0.05045438293 2.831986574e-22)
(-0.02582957485 0.06912511905 1.52686243e-22)
(-0.04402138376 0.07849258145 3.619280551e-24)
(-0.06310739272 0.08029476641 -7.319356971e-23)
(-0.08190405207 0.07588043105 9.043540811e-23)
(-0.09947763819 0.06621690833 -3.590214701e-24)
(-0.1150227392 0.05201695146 -1.729171584e-24)
(-0.1277519196 0.03392358523 2.524162521e-24)
(-0.1368472617 0.01270233182 7.382608558e-24)
(-0.1414710537 -0.01058782374 -6.500846717e-24)
(-0.1408248197 -0.03446024457 -9.788064798e-24)
(-0.1342745984 -0.05692771824 -3.261733239e-23)
(-0.1215450257 -0.0755331634 -3.661459685e-23)
(-0.1029672674 -0.08754260663 5.645892838e-25)
(-0.07976370045 -0.09039209724 0)
(-0.05426682578 -0.08244513756 0)
(-0.02987160993 -0.06397736834 -2.906068992e-24)
(-0.01066285167 -0.0379879467 2.970518314e-24)
(-0.0007350937893 -0.01050089423 1.027872216e-22)
(-0.0004479164117 0.02687251163 0)
(-0.01134923222 0.0648075765 2.001980213e-22)
(-0.02801599704 0.08829617426 8.962052984e-23)
(-0.04799857399 0.1001234967 0)
(-0.06920602084 0.1027076575 1.569884685e-22)
(-0.09044373325 0.09781578829 0)
(-0.1107831698 0.08661103204 -1.428389595e-22)
(-0.1294093784 0.06983950473 6.515565895e-24)
(-0.1454771657 0.04808232253 0)
(-0.1580351835 0.02201755575 0)
(-0.1660133476 -0.007334440241 -1.374412131e-24)
(-0.1682671578 -0.0383883983 -9.316769856e-25)
(-0.1637064718 -0.06883975994 1.491980176e-22)
(-0.1515208783 -0.09558275909 -4.704635994e-23)
(-0.1315134575 -0.1148298673 -2.560971123e-24)
(-0.1045596093 -0.1225703423 1.534732002e-24)
(-0.07309350009 -0.1155517974 -1.558941294e-24)
(-0.04135021559 -0.09283115612 0)
(-0.01525230306 -0.05740767639 3.20381603e-24)
(-0.001044309189 -0.01714714439 -1.012915192e-21)
(-0.0003744663783 0.03346304569 0)
(-0.01175006048 0.07998918861 -1.12829322e-22)
(-0.02920707925 0.1086390962 -6.191156411e-22)
(-0.05031745051 0.1232234011 -3.755310545e-22)
(-0.07296317511 0.1269097055 0)
(-0.09598960312 0.1219255659 4.119459823e-22)
(-0.11852735 0.1096348659 1.260926082e-22)
(-0.1398146442 0.0907824598 -5.581840245e-24)
(-0.1590221575 0.06581393212 5.554213135e-24)
(-0.1751461029 0.03520881092 0)
(-0.1869560009 -0.0001967476705 2.912133394e-23)
(-0.1930172672 -0.03889754434 4.695843607e-24)
(-0.1917809937 -0.07843888667 -1.076809514e-22)
(-0.1817874459 -0.1151865395 8.004215098e-23)
(-0.1620570457 -0.1442599483 -2.419748606e-22)
(-0.1327062018 -0.1598548646 0)
(-0.09577888284 -0.1563112901 0)
(-0.0560163313 -0.1302981094 0)
(-0.02147859167 -0.0838113515 0)
(-0.001500384682 -0.02665516284 5.572121841e-22)
(-0.0002873898762 0.04016077819 0)
(-0.01169359609 0.09543611671 -3.493018738e-22)
(-0.02924438267 0.1294073647 8.932806627e-22)
(-0.05060947273 0.1469299188 3.617182754e-22)
(-0.07370082656 0.1519748693 0)
(-0.0974515117 0.147275798 -3.862557466e-22)
(-0.1211069845 0.1344191965 -3.174432083e-23)
(-0.1440324798 0.1141393329 3.333106629e-22)
(-0.1655143251 0.08670006663 1.769475733e-22)
(-0.1846248537 0.05229123494 -4.060154563e-23)
(-0.2001325826 0.01141716149 1.656821868e-23)
(-0.2104622456 -0.03471424231 -8.265255436e-24)
(-0.2137208541 -0.08376563733 3.371860781e-22)
(-0.207821551 -0.1318756364 0)
(-0.1908238546 -0.1732756155 2.420917633e-22)
(-0.1616335746 -0.2002593412 5.774785997e-24)
(-0.1211662697 -0.2040121724 -5.860905137e-24)
(-0.07384989839 -0.1772119968 1.548451001e-22)
(-0.02971786846 -0.1188642333 -5.435469209e-24)
(-0.002179545185 -0.04005398745 0)
(-0.0002117198524 0.04671640104 0)
(-0.01125001073 0.1105498144 0)
(-0.02815624426 0.1497355024 -5.022760493e-22)
(-0.04874479265 0.1701517625 -1.880999136e-23)
(-0.07100086599 0.1766257167 2.038379695e-23)
(-0.09399451468 0.172452653 -2.014312181e-23)
(-0.1171434299 0.1594871003 -2.316884517e-23)
(-0.1400179505 0.1384805092 -3.029825035e-22)
(-0.1621328892 0.1095160719 6.698613346e-23)
(-0.1827959038 0.07245186964 4.513180734e-23)
(-0.2009835556 0.02734928813 -4.577723795e-23)
(-0.2152270262 -0.02508697819 0)
(-0.2235562211 -0.08298351447 -7.839694283e-23)
(-0.2234632196 -0.1427257343 0)
(-0.2120679433 -0.1981820896 -3.739564695e-22)
(-0.1867434551 -0.2400773713 5.244958506e-22)
(-0.1464438307 -0.2560773429 0)
(-0.09394567749 -0.233120952 -1.493997004e-22)
(-0.04022001004 -0.163961367 1.93755356e-22)
(-0.00320110029 -0.05861063167 -3.411533086e-22)
(-0.0002015408576 0.05297585207 0)
(-0.01067261868 0.1248172407 9.182875082e-22)
(-0.02628446657 0.1687424603 -2.440687082e-23)
(-0.04501107774 0.1916455161 9.193345161e-22)
(-0.0649459745 0.1992921074 -2.512088059e-23)
(-0.08536628486 0.1956104336 2.838845599e-23)
(-0.1059305645 0.1827886857 -2.812931646e-23)
(-0.1264924185 0.1616583517 -1.660918641e-23)
(-0.1468996845 0.1321762303 -5.260231205e-22)
(-0.1668458154 0.09389646617 -8.906632009e-24)
(-0.1857303021 0.04640576252 9.660200111e-24)
(-0.2024781682 -0.01023784817 3.313079018e-22)
(-0.2154154609 -0.07499820432 -5.820742787e-22)
(-0.2220209712 -0.1450311851 0)
(-0.2188032101 -0.2146760633 8.887328643e-22)
(-0.2016257523 -0.2740016441 -4.940890879e-22)
(-0.1668639193 -0.3075811975 -1.57222447e-23)
(-0.1140220094 -0.2953811928 0)
(-0.05288482022 -0.219580259 -1.890187206e-22)
(-0.004749188165 -0.08377277991 3.360590806e-22)
(-0.0003641984849 0.05902317884 1.551011109e-23)
(-0.01049573946 0.137988152 -8.764202435e-22)
(-0.02441389532 0.1856804122 -1.157059798e-21)
(-0.04026724398 0.210138477 -8.628993706e-22)
(-0.05630729545 0.218234893 0)
(-0.07214856462 0.2146190287 3.513807183e-23)
(-0.08779221524 0.201879197 -7.294870118e-23)
(-0.1034562782 0.181000562 5.867887127e-23)
(-0.1193983865 0.1518997246 3.021368004e-22)
(-0.135793154 0.1139150569 -1.128196165e-23)
(-0.1526082315 0.06621424915 0)
(-0.169452137 0.00817720279 -3.603931215e-22)
(-0.1852760594 -0.06015987784 7.515671145e-22)
(-0.1980448514 -0.1372747022 8.831707248e-22)
(-0.2043546262 -0.21892619 -5.296629988e-22)
(-0.1990977611 -0.2959712926 5.162692212e-22)
(-0.176060533 -0.3514072604 1.078234118e-23)
(-0.1300890631 -0.3584150798 -1.095549177e-23)
(-0.06688803307 -0.2843276522 -8.215298162e-23)
(-0.00708331993 -0.1169964422 0)
(-0.0009095776029 0.06540041669 -1.911487588e-23)
(-0.0116759173 0.1502816427 -1.326966042e-21)
(-0.02388882068 0.2000659576 1.094238145e-21)
(-0.03601340385 0.2244216982 6.734933588e-22)
(-0.0465730866 0.2316588259 6.014635058e-22)
(-0.05577038377 0.2272393711 6.64396042e-22)
(-0.06411245595 0.214177489 -4.458679464e-23)
(-0.07227561476 0.1936494391 -3.46133851e-22)
(-0.08096972776 0.1656028321 2.152163183e-22)
(-0.09087192147 0.1292707354 0)
(-0.1025547436 0.08353082419 0)
(-0.1163622141 0.02720010642 2.655397648e-22)
(-0.1321589545 -0.04062006111 8.194326764e-23)
(-0.1489252306 -0.1200128318 -2.821624669e-22)
(-0.1641284271 -0.2089300699 -5.411273367e-23)
(-0.1727877612 -0.3006992515 1.301952069e-22)
(-0.16703113 -0.379332911 -3.400506761e-22)
(-0.1365292437 -0.4136451977 -1.593833062e-23)
(-0.08018250132 -0.3538326211 8.204070865e-23)
(-0.01050762291 -0.1594130573 -6.032159132e-22)
(-0.002260498466 0.07348883624 0)
(-0.01580355682 0.1626521785 2.145875262e-21)
(-0.02665042604 0.2117904751 0)
(-0.03422339605 0.2333947284 -1.351808505e-21)
(-0.03759398457 0.2377766838 6.18404983e-23)
(-0.03799685176 0.2312553533 -6.193097835e-22)
(-0.036682658 0.2171899018 -4.756286286e-22)
(-0.03489036218 0.1968934497 8.301258015e-22)
(-0.03378837778 0.1703342385 -1.885698682e-22)
(-0.03449876302 0.1367221074 0)
(-0.03811572578 0.09479673584 0)
(-0.04564992304 0.04304286527 2.410616564e-23)
(-0.05790804191 -0.02013781295 -6.007200085e-22)
(-0.07514598456 -0.09620650275 -4.309568163e-22)
(-0.09645174921 -0.1855556178 4.637863757e-22)
(-0.1183462611 -0.2853567776 -6.488737539e-22)
(-0.1332715379 -0.3838386538 9.119947656e-23)
(-0.1265350986 -0.4504358718 2.937317563e-23)
(-0.08899154073 -0.4198536379 5.660444173e-22)
(-0.01526917928 -0.2111719734 6.020791875e-22)
(-0.005180899619 0.08598046037 0)
(-0.02525550748 0.17662912 1.465579408e-22)
(-0.03483408034 0.2205961563 -4.917145712e-23)
(-0.03640013901 0.2354859357 7.642932856e-22)
(-0.03018483044 0.234340676 -7.005380395e-22)
(-0.01916579395 0.2241603889 4.746482457e-23)
(-0.005615149515 0.2083525849 -1.018610065e-22)
(0.008569608851 0.188124109 -3.389889733e-22)
(0.02179886303 0.163391127 2.062823384e-22)
(0.03262781606 0.1333242731 0)
(0.03958458693 0.09664086155 0)
(0.0411701339 0.05174056401 -2.902668339e-22)
(0.03578483951 -0.003255398344 0)
(0.02198184805 -0.07058360895 -5.512188242e-22)
(-0.001264844905 -0.1525735512 -1.492376873e-23)
(-0.03310469778 -0.2505949851 2.559741544e-23)
(-0.06909235732 -0.3599341519 2.203143488e-22)
(-0.09227826944 -0.4575424529 4.788085138e-24)
(-0.08718089896 -0.4698129416 -5.789412623e-22)
(-0.02103127143 -0.2698972298 0)
(-0.01111631562 0.1085974979 0)
(-0.04248901904 0.194715168 -8.848480418e-22)
(-0.04795528987 0.2258195516 -5.411040487e-22)
(-0.03919535997 0.2282135561 4.543817459e-22)
(-0.01877830326 0.2182328141 -1.709981793e-24)
(0.007664313735 0.202822036 -4.561050673e-23)
(0.03667993398 0.1847619773 5.696683696e-22)
(0.0658299861 0.1647118219 -2.766891263e-23)
(0.09327130942 0.1423128181 -2.069782269e-22)
(0.1173891614 0.116627494 3.142214298e-23)
(0.1365461694 0.08641143893 -3.425917931e-23)
(0.1489669275 0.05017669017 -3.690594896e-23)
(0.1525275788 0.006159166669 3.205634193e-22)
(0.1449367038 -0.0479612706 6.119607529e-22)
(0.1235159797 -0.1153052912 -5.10117276e-22)
(0.08633533488 -0.2004195652 -1.616058894e-22)
(0.0319908934 -0.3067806593 1.531307506e-22)
(-0.02362123119 -0.4239837146 7.293652816e-23)
(-0.06492413038 -0.487161279 1.913291677e-21)
(-0.02509971699 -0.3291544745 2.954991541e-21)
(-0.02004680487 0.1460727406 -4.390208131e-23)
(-0.06416406273 0.2112955858 4.417380874e-23)
(-0.05070230612 0.2177300485 1.000188704e-21)
(-0.01934097403 0.201467999 -8.270571045e-24)
(0.02414464891 0.1809076186 0)
(0.07154122024 0.1606933356 4.363723356e-23)
(0.1190703403 0.1416495501 -2.27385258e-22)
(0.164476733 0.1233181828 -9.027959478e-23)
(0.2062251158 0.1048117299 3.680735483e-23)
(0.2429643024 0.08507140124 -1.701655421e-23)
(0.2732207583 0.06296147698 3.42997124e-23)
(0.2952536114 0.03726293825 -6.592682634e-23)
(0.3066971067 0.006535068047 -9.303907862e-23)
(0.304973832 -0.0308777007 1.517044506e-22)
(0.2863936257 -0.07786290998 0)
(0.2470568091 -0.1399300372 1.505611974e-22)
(0.1810922241 -0.2266299755 2.560013957e-22)
(0.09604450282 -0.344389495 0)
(-0.006697615732 -0.455221022 -3.675634934e-21)
(-0.01922408198 -0.377753759 -2.892621011e-21)
(-0.02591951341 0.2276828799 -9.514205059e-22)
(-0.03998324626 0.2238216527 -1.388976622e-22)
(0.03656136894 0.1810585365 -2.335582163e-22)
(0.1090503043 0.1451059098 -1.193742371e-22)
(0.181719119 0.1172445501 -4.295827024e-23)
(0.2490090729 0.09627907697 9.783184594e-23)
(0.31003367 0.08002510482 -1.40859267e-22)
(0.3646209332 0.06656815396 1.297175722e-22)
(0.4126252496 0.05449178941 -8.620123058e-23)
(0.4536250304 0.04270894961 1.132190529e-25)
(0.4867878731 0.03032298437 1.527742133e-23)
(0.5107451374 0.01652901859 7.99720699e-23)
(0.5236597467 0.0005365142358 -1.811124318e-22)
(0.5231798024 -0.01863373272 -1.617146661e-22)
(0.505232343 -0.04286478982 -4.262956207e-23)
(0.465871509 -0.07633231209 0)
(0.3952696504 -0.1286089386 -1.846477327e-22)
(0.2916071052 -0.22084681 8.148763401e-22)
(0.1197455107 -0.3525016904 1.631601586e-21)
(0.02670547263 -0.3775497981 2.172655915e-21)
(0.2142894468 0.1347447206 9.864990067e-22)
(0.2776311181 0.0987050354 0)
(0.4316592284 0.05810414829 -2.594321307e-22)
(0.530474934 0.03846264961 -1.741666973e-22)
(0.6016965746 0.02623419126 0)
(0.6571198955 0.01831923489 -6.009094124e-23)
(0.7015213601 0.01313600863 6.378003833e-23)
(0.73760425 0.00954212649 -1.800157103e-23)
(0.7669368418 0.006804463713 2.885975076e-23)
(0.7902106689 0.004464743948 2.315033816e-23)
(0.8074555016 0.002221319846 0)
(0.8182621362 -0.0001500750282 -2.873033644e-23)
(0.8216499722 -0.002723848361 0)
(0.8162394204 -0.005712668721 2.73815198e-23)
(0.7991333155 -0.009611382884 1.421692783e-23)
(0.7679986351 -0.0150025511 -5.799403014e-23)
(0.710655576 -0.02502519957 -2.535660905e-22)
(0.6235183984 -0.04204285412 -6.918101741e-22)
(0.4230091022 -0.09182968087 0)
(0.270567469 -0.1524021842 -2.11948378e-21)
)
;

boundaryField
{
    movingWall
    {
        type            fixedValue;
        value           uniform (1 0 0);
    }
    fixedWalls
    {
        type            fixedValue;
        value           uniform (0 0 0);
    }
    frontAndBack
    {
        type            empty;
    }
}


// ************************************************************************* //
