/*--------------------------------*- C++ -*----------------------------------*\
  =========                 |
  \\      /  F ield         | OpenFOAM: The Open Source CFD Toolbox
   \\    /   O peration     | Website:  https://openfoam.org
    \\  /    A nd           | Version:  13
     \\/     M anipulation  |
\*---------------------------------------------------------------------------*/
FoamFile
{
    format      ascii;
    class       volVectorField;
    location    "44";
    object      U;
}
// * * * * * * * * * * * * * * * * * * * * * * * * * * * * * * * * * * * * * //

dimensions      [0 1 -1 0 0 0 0];

internalField   nonuniform List<vector> 
400
(
(0.000183214537 -0.0001871215395 0)
(-0.0001372101186 2.970992944e-05 0)
(-0.00153415591 0.0002682661064 0)
(-0.003788629159 0.0004194631055 0)
(-0.00655208348 0.0004994116629 0)
(-0.009522822762 0.0005299571077 0)
(-0.01245046663 0.0005208706303 0)
(-0.01510095576 0.000471050338 0)
(-0.01723320857 0.0003736693591 0)
(-0.01859986269 0.0002232897875 0)
(-0.01897472943 2.31440526e-05 0)
(-0.01820241558 -0.0002093228708 0)
(-0.01625789169 -0.0004400386619 0)
(-0.01329740839 -0.0006222978879 0)
(-0.009678643375 -0.0007073669918 0)
(-0.005929673122 -0.0006602656664 0)
(-0.002658150351 -0.0004748805056 0)
(-0.0004065220596 -0.0001819050405 0)
(0.0005412323987 0.0001374789237 0)
(0.0003100487343 0.0003030546625 0)
(-4.694565277e-05 0.0001361807844 0)
(-0.002080482689 0.001933452511 0)
(-0.006437774084 0.00376251528 0)
(-0.01259297263 0.005027398348 0)
(-0.01978650278 0.005693353539 0)
(-0.02734650414 0.005836897511 0)
(-0.03466704917 0.005508626641 0)
(-0.04116496369 0.004714776242 0)
(-0.04625935613 0.003445439721 0)
(-0.04939096678 0.001720116048 0)
(-0.05008625161 -0.0003681402321 0)
(-0.04805498846 -0.002624325649 0)
(-0.04329878163 -0.004750526126 0)
(-0.03619782473 -0.00638285516 0)
(-0.0275388914 -0.007168059213 0)
(-0.01845065163 -0.006868902046 0)
(-0.01022496282 -0.005470794236 0)
(-0.004032720082 -0.003256852034 0)
(-0.000575549431 -0.0008605238807 0)
(0.0002220628556 0.0005904557801 0)
(-0.0003533545286 0.001717447183 0)
(-0.004489789004 0.006469803147 0)
(-0.01187921418 0.01068086704 0)
(-0.02161703628 0.0135285232 0)
(-0.03260397232 0.01496373615 0)
(-0.04392670624 0.01511417151 0)
(-0.05474545063 0.01406908044 0)
(-0.0642423336 0.01185064164 0)
(-0.07161377433 0.00847214353 0)
(-0.07610672132 0.004028672515 0)
(-0.07710107513 -0.00121836034 0)
(-0.07422529548 -0.006791226268 0)
(-0.0674820096 -0.0120023239 0)
(-0.05735281896 -0.01603340005 0)
(-0.04484428076 -0.01809409992 0)
(-0.03143143901 -0.01764413105 0)
(-0.01885826254 -0.01462911252 0)
(-0.008793124848 -0.009653840563 0)
(-0.002418465359 -0.004055501348 0)
(3.553290244e-05 2.622906266e-05 0)
(-0.0006310508041 0.004597666153 0)
(-0.006816877451 0.01368440951 0)
(-0.01711534098 0.02093788841 0)
(-0.0301747792 0.02564993192 0)
(-0.04455400447 0.02788565519 0)
(-0.05915856161 0.02786426317 0)
(-0.07300234008 0.02572508452 0)
(-0.08512615107 0.02151434373 0)
(-0.0945894247 0.01528420139 0)
(-0.1005088001 0.007231517859 0)
(-0.10214147 -0.002177516713 0)
(-0.09900262895 -0.01213460907 0)
(-0.09100165075 -0.0214962462 0)
(-0.07857571889 -0.02889622891 0)
(-0.06278643051 -0.03298107836 0)
(-0.04532333724 -0.03276283075 0)
(-0.02834019045 -0.02802631508 0)
(-0.01408769421 -0.01965671766 0)
(-0.004432844694 -0.009750351715 0)
(-0.0001249121315 -0.001514400412 0)
(-0.0008703204473 0.008660397798 0)
(-0.008898563424 0.02334916374 0)
(-0.02183777519 0.03420205862 0)
(-0.03789692559 0.04095086345 0)
(-0.05531448604 0.04394875159 0)
(-0.0728601506 0.04358269857 0)
(-0.08946817095 0.04006927608 0)
(-0.1041110589 0.03348498164 0)
(-0.115773325 0.02391753095 0)
(-0.1234747058 0.01165462491 0)
(-0.1263380931 -0.002650018245 0)
(-0.1236975556 -0.01787225274 0)
(-0.1152451861 -0.03240404197 0)
(-0.1012098021 -0.04426898841 0)
(-0.08254022927 -0.05140812101 0)
(-0.06102618322 -0.0521640781 0)
(-0.03923734585 -0.04591266701 0)
(-0.02017566819 -0.03364821085 0)
(-0.006684392809 -0.01822623143 0)
(-0.0002713228679 -0.004089562085 0)
(-0.001067436592 0.01374463095 0)
(-0.01065316587 0.03516152505 0)
(-0.02585358526 0.05012014727 0)
(-0.0444980557 0.05906512551 0)
(-0.06455738865 0.06281168284 0)
(-0.0847135531 0.06200643767 0)
(-0.1038793184 0.05698065547 0)
(-0.1210210621 0.04784379973 0)
(-0.1351005952 0.03469543856 0)
(-0.145067105 0.01786614973 0)
(-0.1498948201 -0.001869988572 0)
(-0.1486702722 -0.02314236803 0)
(-0.1407446965 -0.04391985394 0)
(-0.1259633696 -0.06157925209 0)
(-0.1049603534 -0.07319274086 0)
(-0.07945270361 -0.07612159041 0)
(-0.05237380859 -0.06892549746 0)
(-0.02764072778 -0.05236882396 0)
(-0.009454578425 -0.03001079244 0)
(-0.0004466267797 -0.007849647613 0)
(-0.001214765524 0.01965718305 0)
(-0.01200581676 0.0487368225 0)
(-0.02898442656 0.06824278866 0)
(-0.04968623121 0.07954882392 0)
(-0.07188501951 0.08408647954 0)
(-0.09422588965 0.08285521339 0)
(-0.1156544779 0.07634323331 0)
(-0.1351900223 0.06469310942 0)
(-0.1518269042 0.047977606 0)
(-0.1644836978 0.02649359857 0)
(-0.1719971358 0.001026562593 0)
(-0.1731764262 -0.02693045119 0)
(-0.1669428093 -0.05502293734 0)
(-0.1525923797 -0.07999956299 0)
(-0.1302029348 -0.09792236854 0)
(-0.1011390229 -0.1048014133 0)
(-0.06849111827 -0.09779468022 0)
(-0.03714441515 -0.07683467156 0)
(-0.0131046717 -0.04595522896 0)
(-0.000702314621 -0.01312423335 0)
(-0.001303617049 0.02616603136 0)
(-0.01288466034 0.0636024655 0)
(-0.0310576059 0.0880029719 0)
(-0.05315729815 0.1018237545 0)
(-0.07683486746 0.1072392791 0)
(-0.1007465618 0.1056906134 0)
(-0.1239213347 0.09786948512 0)
(-0.1454907371 0.08395478019 0)
(-0.1645480638 0.06395019881 0)
(-0.180049414 0.03802895998 0)
(-0.1907555499 0.006851993942 0)
(-0.195233719 -0.02813567299 0)
(-0.1919568819 -0.06442883197 0)
(-0.1795590897 -0.09826524283 0)
(-0.1573107184 -0.1246526657 0)
(-0.1258311111 -0.137906444 0)
(-0.08793161284 -0.1330466239 0)
(-0.04926140907 -0.1081964649 0)
(-0.01802957058 -0.06723084334 0)
(-0.001101635723 -0.02044711123 0)
(-0.001329284661 0.03300450415 0)
(-0.01324302151 0.07920717676 0)
(-0.03194254341 0.1087161857 0)
(-0.05464634312 0.125152386 0)
(-0.07894942859 0.1315304307 0)
(-0.1035598258 0.1298173516 0)
(-0.1276350714 0.1209626513 0)
(-0.1504790331 0.1051967882 0)
(-0.171362996 0.08242419968 0)
(-0.1893811409 0.05261242135 0)
(-0.2033372468 0.01615814699 0)
(-0.2116786317 -0.02574028176 0)
(-0.2125192646 -0.07067514927 0)
(-0.2038228325 -0.1146264726 0)
(-0.1838605998 -0.1516892583 0)
(-0.1520589199 -0.1743048729 0)
(-0.1102705192 -0.174591545 0)
(-0.06428917925 -0.1474585478 0)
(-0.02462800328 -0.09524995011 0)
(-0.001727779921 -0.03056944533 0)
(-0.001298454845 0.03989413945 0)
(-0.01309797693 0.09495427865 0)
(-0.03161853215 0.1296012099 0)
(-0.05402357107 0.1486332238 0)
(-0.07790359805 0.1559793111 0)
(-0.1020527508 0.1542160176 0)
(-0.1257986437 0.144616429 0)
(-0.1486762611 0.1274982403 0)
(-0.1702206802 0.1026640444 0)
(-0.1897875545 0.06982516268 0)
(-0.2063907564 0.02900024412 0)
(-0.2185611939 -0.01905788571 0)
(-0.2242669094 -0.0723394434 0)
(-0.2209494782 -0.126963561 0)
(-0.2058431587 -0.1765097194 0)
(-0.1768059949 -0.2116978038 0)
(-0.1339065137 -0.2211985584 0)
(-0.08197096737 -0.1950047967 0)
(-0.0332469189 -0.1314753129 0)
(-0.002694673728 -0.04446707202 0)
(-0.001239095662 0.04659336656 0)
(-0.01258192984 0.1102712954 0)
(-0.03026379608 0.1498339571 0)
(-0.05141801396 0.1712288589 0)
(-0.07366748426 0.1793694223 0)
(-0.09593171745 0.1775301751 0)
(-0.1177543603 0.1673851516 0)
(-0.1389587062 0.1493971777 0)
(-0.1594246714 0.1233003167 0)
(-0.178892162 0.08854830325 0)
(-0.1967678824 0.04472420601 0)
(-0.211916755 -0.008018567983 0)
(-0.2224778167 -0.06838875034 0)
(-0.2256949368 -0.1331219893 0)
(-0.2179721918 -0.1959504316 0)
(-0.195470571 -0.2464967648 0)
(-0.1557278244 -0.2699930996 0)
(-0.1011206334 -0.2499356519 0)
(-0.04405382848 -0.1770544742 0)
(-0.004156761704 -0.06332899325 0)
(-0.001213859782 0.05297992484 0)
(-0.01200687852 0.1247235604 0)
(-0.02835515272 0.1686383483 0)
(-0.04734369667 0.1918295147 0)
(-0.06666253798 0.2002996792 0)
(-0.08542634976 0.1981204736 0)
(-0.1034631826 0.1874467525 0)
(-0.1209441168 0.1689554135 0)
(-0.1381576912 0.1423743263 0)
(-0.1553185153 0.1069489562 0)
(-0.1723733284 0.06184015744 0)
(-0.188775056 0.006532723661 0)
(-0.203169402 -0.05861491612 0)
(-0.2130575771 -0.1314645692 0)
(-0.2145258541 -0.2067455973 0)
(-0.202315702 -0.2741079615 0)
(-0.1710716821 -0.3162245022 0)
(-0.1192409655 -0.3093368518 0)
(-0.05679086169 -0.2322081203 0)
(-0.006311448336 -0.0884968556 0)
(-0.001341588319 0.05917978206 0)
(-0.01194803744 0.1381730454 0)
(-0.02676822847 0.1854014649 0)
(-0.04279316538 0.2093334262 0)
(-0.05784813639 0.2172633119 0)
(-0.07138686454 0.2141697254 0)
(-0.08363940064 0.2027470737 0)
(-0.09519507448 0.1839384227 0)
(-0.1067907499 0.1575315379 0)
(-0.1191524869 0.1226459834 0)
(-0.1328345199 0.07810457333 0)
(-0.1480079416 0.02277243622 0)
(-0.164132526 -0.04398384708 0)
(-0.1794870259 -0.1215141795 0)
(-0.1905502392 -0.2063744718 0)
(-0.1914192521 -0.2897278107 0)
(-0.1741589817 -0.3535803075 0)
(-0.1323353947 -0.3677601206 0)
(-0.07039180262 -0.2953429364 0)
(-0.009380231216 -0.1212833547 0)
(-0.001837889986 0.06576549602 0)
(-0.01336234922 0.1509744675 0)
(-0.02686159163 0.1997747248 0)
(-0.03923873892 0.2226950675 0)
(-0.04863850783 0.2287034765 0)
(-0.0551355208 0.2237845851 0)
(-0.05955577933 0.2111646205 0)
(-0.06299492848 0.1920444969 0)
(-0.06665122023 0.1663023094 0)
(-0.07173357516 0.133011528 0)
(-0.07936808644 0.09078613748 0)
(-0.0904540097 0.03803279075 0)
(-0.1054015015 -0.0267565564 0)
(-0.1236611976 -0.1044495839 0)
(-0.1429040499 -0.1939790483 0)
(-0.1577748413 -0.2895294107 0)
(-0.1589088606 -0.3751741549 0)
(-0.1350626031 -0.4172857532 0)
(-0.08250404606 -0.3620152904 0)
(-0.01351623584 -0.1625093759 0)
(-0.003075229575 0.07404903005 0)
(-0.01773654991 0.1641756464 0)
(-0.03045950884 0.2116760402 0)
(-0.03836429096 0.2308471885 0)
(-0.04040202825 0.2329554569 0)
(-0.03777623054 0.2250000683 0)
(-0.03219047733 0.2105891378 0)
(-0.0253449652 0.1910606325 0)
(-0.0188851715 0.1663380047 0)
(-0.01442123068 0.1354865881 0)
(-0.01353303331 0.09703762684 0)
(-0.0177291528 0.04916310689 0)
(-0.02831175443 -0.01020098509 0)
(-0.0460458597 -0.08312296858 0)
(-0.07039573344 -0.1709135152 0)
(-0.09788607918 -0.2718134585 0)
(-0.1196508603 -0.3749922936 0)
(-0.1210698422 -0.4484199796 0)
(-0.08898428229 -0.4242713465 0)
(-0.01849424282 -0.2116992251 0)
(-0.005571233319 0.0865787064 0)
(-0.02707510825 0.1796106842 0)
(-0.039297257 0.2209290128 0)
(-0.04083849508 0.232239647 0)
(-0.03269836591 0.2278648625 0)
(-0.01806059056 0.2155123552 0)
(0.0001654177952 0.1987618269 0)
(0.01961608239 0.1788059336 0)
(0.03826396784 0.1554706533 0)
(0.054228028 0.1277910227 0)
(0.06564421577 0.09430775821 0)
(0.0705922892 0.05318254141 0)
(0.06708856926 0.002196946223 0)
(0.05321083623 -0.06131832176 0)
(0.02756104941 -0.1404106428 0)
(-0.009245121961 -0.2374418854 0)
(-0.05115130307 -0.3491222318 0)
(-0.08307931342 -0.4515479715 0)
(-0.08340832304 -0.4711148365 0)
(-0.02311207213 -0.2667203522 0)
(-0.009891919459 0.1087113997 0)
(-0.04293753857 0.1996084198 0)
(-0.05210871638 0.2258031847 0)
(-0.04158587106 0.2233713516 0)
(-0.01757842692 0.2096704277 0)
(0.01364002496 0.1919175124 0)
(0.04788979754 0.1728052956 0)
(0.08233724399 0.1528986436 0)
(0.1148165787 0.1316895795 0)
(0.1434252474 0.1081153961 0)
(0.1662609983 0.08078802327 0)
(0.1812480922 0.04804577856 0)
(0.1860169184 0.007882677631 0)
(0.1778651154 -0.0423034286 0)
(0.153846309 -0.1061966164 0)
(0.1115863034 -0.1890960533 0)
(0.0523927768 -0.2959805014 0)
(-0.01246436646 -0.4177286629 0)
(-0.05672541646 -0.4889437891 0)
(-0.02465201102 -0.3240346509 0)
(-0.01781125271 0.1516681007 0)
(-0.06128018616 0.2236373809 0)
(-0.05221359702 0.2176923288 0)
(-0.01425087022 0.1949967382 0)
(0.03558377144 0.1711386383 0)
(0.08883746549 0.1491628339 0)
(0.1415203471 0.1294644152 0)
(0.1913428093 0.1114515122 0)
(0.2367061347 0.09408654871 0)
(0.2762087316 0.07618974052 0)
(0.3083192111 0.05652887252 0)
(0.3311692725 0.03378186096 0)
(0.3423812048 0.006433148271 0)
(0.3389615785 -0.02749965941 0)
(0.3171048059 -0.07117672669 0)
(0.2722292492 -0.1305365134 0)
(0.2001397389 -0.2164889825 0)
(0.1030009366 -0.3383511073 0)
(0.004367390282 -0.4567834771 0)
(-0.01596031313 -0.3693221353 0)
(-0.02422386163 0.2082650384 0)
(-0.03791510301 0.2303566303 0)
(0.03728012651 0.176540003 0)
(0.12508164 0.1368739844 0)
(0.2058822809 0.109090357 0)
(0.2780943347 0.08825147304 0)
(0.3423789635 0.07215619634 0)
(0.3990191816 0.05921550906 0)
(0.4480591274 0.04804880857 0)
(0.4892666281 0.03752474723 0)
(0.5219662969 0.02670422197 0)
(0.5449252459 0.014740461 0)
(0.5562624874 0.0007611136585 0)
(0.553327797 -0.0163051038 0)
(0.5323086301 -0.03829729716 0)
(0.4877421552 -0.06915609341 0)
(0.4111406556 -0.1191015094 0)
(0.2908869756 -0.2093510425 0)
(0.133132681 -0.3382882805 0)
(0.03877498446 -0.3403649142 0)
(0.2418856095 0.1091323099 0)
(0.3134535425 0.09711627287 0)
(0.444318148 0.05696693237 0)
(0.5496312436 0.03510748492 0)
(0.6240724207 0.02373777077 0)
(0.6796293182 0.0167079613 0)
(0.7235196074 0.01197810615 0)
(0.7588379733 0.008692123956 0)
(0.7871327952 0.006253188312 0)
(0.8092010147 0.00423012776 0)
(0.8252208791 0.002328606311 0)
(0.8348229633 0.000340781206 0)
(0.8371459193 -0.001909680545 0)
(0.8307712833 -0.004591019994 0)
(0.8133983301 -0.008028723751 0)
(0.7811357799 -0.0128847415 0)
(0.7256917473 -0.02122912329 0)
(0.6298631393 -0.03809225909 0)
(0.459268459 -0.08554922527 0)
(0.3048940466 -0.1256976049 0)
)
;

boundaryField
{
    movingWall
    {
        type            fixedValue;
        value           uniform (1 0 0);
    }
    fixedWalls
    {
        type            fixedValue;
        value           uniform (0 0 0);
    }
    frontAndBack
    {
        type            empty;
    }
}


// ************************************************************************* //
