/*--------------------------------*- C++ -*----------------------------------*\
  =========                 |
  \\      /  F ield         | OpenFOAM: The Open Source CFD Toolbox
   \\    /   O peration     | Website:  https://openfoam.org
    \\  /    A nd           | Version:  13
     \\/     M anipulation  |
\*---------------------------------------------------------------------------*/
FoamFile
{
    format      ascii;
    class       vectorField;
    location    "24.27";
    object      U_all;
}
// * * * * * * * * * * * * * * * * * * * * * * * * * * * * * * * * * * * * * //


400
(
(1.088465013e-05 -3.78968298e-05 0)
(-0.0006661971417 0.0004130130997 -1.543846002e-23)
(-0.002185296562 0.0009203392046 0)
(-0.004047612163 0.001312696864 0)
(-0.005971507406 0.001534965813 6.833217629e-25)
(-0.007762300306 0.001569745688 4.1531001e-24)
(-0.009283968793 0.00142347261 -7.335775989e-24)
(-0.01043530752 0.001119654671 7.569682807e-24)
(-0.01113616414 0.0006960438163 -2.098483967e-25)
(-0.01132648752 0.0002030708994 -3.999331958e-24)
(-0.01097121631 -0.0003002106981 5.808756532e-24)
(-0.01007187508 -0.0007474723263 -5.933823698e-23)
(-0.008679555453 -0.001075509253 -6.557098923e-23)
(-0.006902666736 -0.00123299506 -7.788911023e-23)
(-0.004910682764 -0.001192605846 4.576504921e-24)
(-0.002927281622 -0.000961913073 -4.141018182e-24)
(-0.001205413957 -0.0005912314627 -2.000856892e-22)
(-1.919328949e-05 -0.0001699225022 0)
(0.0005180644623 0.0001720375925 1.518883171e-25)
(0.0002227283628 0.0003059474171 -2.673698455e-24)
(-0.0002634017729 0.0008288274988 1.388705141e-25)
(-0.002703185702 0.003383578648 1.553515312e-23)
(-0.006906826422 0.005604083065 1.54376722e-25)
(-0.0119514834 0.007007693348 -8.471519783e-25)
(-0.01713382108 0.007553234216 1.158567395e-24)
(-0.02197378941 0.007293695778 1.302903708e-23)
(-0.02610893181 0.006321484505 1.42810565e-24)
(-0.02926365362 0.004753920394 -7.320356392e-24)
(-0.03122468436 0.002737041394 1.017218309e-23)
(-0.0318400268 0.0004524618539 4.515405129e-24)
(-0.03102580372 -0.001883931389 -6.324470341e-24)
(-0.02879162234 -0.004022697162 2.96116309e-24)
(-0.02527017223 -0.005707956678 3.897814513e-23)
(-0.02073110055 -0.006707009426 -1.95628149e-24)
(-0.01558913036 -0.006853801202 3.757593276e-24)
(-0.01038493698 -0.006097238471 -9.751916948e-23)
(-0.005730284957 -0.004546101945 9.648742873e-23)
(-0.002233475762 -0.00250746669 -3.979697156e-25)
(-0.0001818753133 -0.0005025030512 4.080065527e-25)
(8.342040735e-05 0.0006098221724 0)
(-0.0004188015691 0.002934848244 -2.915911448e-25)
(-0.00464754364 0.008803334114 1.709407713e-23)
(-0.01137109396 0.01323939681 -8.211216855e-24)
(-0.01932580063 0.01579083249 -2.063782803e-25)
(-0.02747200769 0.01652877143 2.027450692e-25)
(-0.03511513233 0.01564330935 8.034916917e-27)
(-0.04171036691 0.0133591054 -1.259333159e-24)
(-0.04683236476 0.009919220986 -4.576435751e-25)
(-0.05014643911 0.005602251947 -1.065134669e-23)
(-0.05140893866 0.0007446180558 0)
(-0.0504747876 -0.004241244301 0)
(-0.04733430344 -0.008886382675 2.673277167e-23)
(-0.0421570082 -0.0126808021 2.815245493e-23)
(-0.03531264859 -0.01513504886 -1.647713491e-24)
(-0.02738878372 -0.01586098987 4.851215561e-23)
(-0.01916937056 -0.01467264979 9.429894429e-23)
(-0.01156060153 -0.01169320177 3.987062281e-23)
(-0.005465343244 -0.007450640614 4.179211961e-25)
(-0.001451128826 -0.002936162532 1.054381672e-25)
(-9.072766265e-05 0.0002257257016 0)
(-0.0005024225022 0.006044876286 -4.255505318e-23)
(-0.00640222402 0.0163694547 -1.699617928e-23)
(-0.01553376965 0.02355747066 8.138100008e-24)
(-0.02627702 0.02743949671 0)
(-0.03728453715 0.02831890247 0)
(-0.04768671146 0.02658584795 0)
(-0.05679238984 0.02262974994 -4.593211357e-26)
(-0.06404921686 0.01683519183 -2.114426033e-24)
(-0.06900602251 0.009621906236 0)
(-0.07130354431 0.00149140788 1.641103889e-24)
(-0.07070406821 -0.006935572132 2.80634562e-25)
(-0.06712637298 -0.01492879182 -2.814203324e-25)
(-0.06069562828 -0.02166558241 0)
(-0.05180476561 -0.02631425508 4.138423567e-23)
(-0.04114789747 -0.02815901679 -4.686773975e-23)
(-0.02971836758 -0.026772339 -2.767783739e-23)
(-0.01873641437 -0.02221437497 -3.972391546e-23)
(-0.009487701153 -0.01521879373 7.795335726e-25)
(-0.002976807754 -0.007298183284 9.777246076e-23)
(-0.0002318707723 -0.0008663144081 0)
(-0.0005315655048 0.01009420829 4.27620766e-23)
(-0.00798293969 0.02595011091 4.773929852e-25)
(-0.0193953154 0.03642594011 -4.66489449e-25)
(-0.03282123825 0.04185197779 0)
(-0.04664330087 0.04289168347 7.770375084e-25)
(-0.05984781873 0.04019795981 -7.66263616e-25)
(-0.07162772536 0.03434527536 3.668030349e-23)
(-0.08132183307 0.02585531169 1.843740543e-23)
(-0.08836008188 0.01527255941 6.226239461e-24)
(-0.09224876764 0.003246638848 -1.6430158e-24)
(-0.09259811188 -0.009406488783 0)
(-0.08917032898 -0.02167273295 4.378500947e-25)
(-0.08195521277 -0.03236491551 1.011780294e-23)
(-0.07126506021 -0.04020974819 -4.354790825e-23)
(-0.05781725806 -0.04401779145 1.936348222e-24)
(-0.04278376877 -0.04294599554 4.228880388e-23)
(-0.02775323546 -0.03683178026 -3.860460035e-25)
(-0.01454999321 -0.02652624653 0)
(-0.004859266375 -0.0140842463 5.436029475e-23)
(-0.0003641269771 -0.002847026778 -2.563638692e-22)
(-0.0005271773483 0.01499807413 9.833758727e-23)
(-0.00937719903 0.03738724506 -4.901963053e-25)
(-0.02288009231 0.05169819714 0)
(-0.03882755791 0.05893738662 0)
(-0.05538257322 0.06025142514 -8.727755314e-23)
(-0.07142377472 0.05661523714 -8.494604921e-23)
(-0.08606073755 0.04879877943 -4.062860838e-23)
(-0.09854447091 0.03743797778 -1.502146616e-23)
(-0.1081878063 0.02315920939 -5.357723637e-24)
(-0.1143376709 0.006710264073 -8.167950851e-24)
(-0.1163979964 -0.01093119757 6.593441918e-24)
(-0.1138875337 -0.02848675796 8.812299492e-24)
(-0.1065431279 -0.04436705626 -1.892008571e-23)
(-0.09446329012 -0.05674954568 4.546724306e-24)
(-0.07826477095 -0.06377918892 0)
(-0.05922617077 -0.06393154483 -1.579011997e-23)
(-0.03933802068 -0.05653549047 -2.232388283e-26)
(-0.02114094041 -0.04235637779 0)
(-0.00731837725 -0.02398154737 -1.519268165e-22)
(-0.0005215832381 -0.005925484813 6.053307118e-22)
(-0.0004990504444 0.02064412498 -9.76678288e-23)
(-0.01052878616 0.05045047605 2.831082156e-22)
(-0.02582782613 0.06911990418 1.526404656e-22)
(-0.04401846667 0.07848688833 3.61787482e-24)
(-0.06310332443 0.08028926323 -7.318671557e-23)
(-0.08189894555 0.07587563363 9.038759213e-23)
(-0.09947167134 0.06621319475 -3.588649483e-24)
(-0.1150161292 0.05201457465 -1.728281903e-24)
(-0.1277449044 0.03392268176 2.522813409e-24)
(-0.1368400882 0.01270292829 7.376040211e-24)
(-0.1414639694 -0.01058580467 -6.493606793e-24)
(-0.1408180652 -0.03445698426 -9.772286535e-24)
(-0.1342684029 -0.056923492 -3.261574892e-23)
(-0.1215396012 -0.07552833723 -3.651536717e-23)
(-0.1029627943 -0.08753762355 5.625687591e-25)
(-0.07976030443 -0.09038744713 0)
(-0.0542645445 -0.0824412976 0)
(-0.02987035652 -0.06397470468 -2.903821174e-24)
(-0.01066239647 -0.03798659063 2.968220662e-24)
(-0.0007350502035 -0.01050063136 1.027792255e-22)
(-0.0004479032045 0.02687049733 0)
(-0.01134859418 0.06480279631 2.001839485e-22)
(-0.02801441933 0.08828984679 8.961552691e-23)
(-0.04799590673 0.1001166272 0)
(-0.06920226743 0.1027010384 1.5693942e-22)
(-0.09043899025 0.0978100188 0)
(-0.1107775959 0.08660654226 -1.42804088e-22)
(-0.1294031676 0.06983657668 6.513613004e-24)
(-0.1454705287 0.04808110657 0)
(-0.1580283353 0.02201808327 0)
(-0.1660065044 -0.007332246913 -1.373831604e-24)
(-0.1682605292 -0.03838471469 -9.310941913e-25)
(-0.1637002624 -0.068834865 1.491214133e-22)
(-0.1515152952 -0.09557702875 -4.704306879e-23)
(-0.1315087021 -0.1148237747 -2.558670739e-24)
(-0.1045558601 -0.1225644458 1.532491862e-24)
(-0.07309087416 -0.1155466971 -1.556665829e-24)
(-0.04134870853 -0.09282739261 0)
(-0.01525172695 -0.05740556682 3.202559622e-24)
(-0.001044255605 -0.01714660967 -1.012585569e-21)
(-0.0003744763788 0.03346070978 0)
(-0.01174959009 0.07998368293 -1.127856139e-22)
(-0.02920585888 0.1086318321 -6.190037956e-22)
(-0.05031533095 0.1232155339 -3.754691526e-22)
(-0.0729601429 0.1269021377 0)
(-0.09598573255 0.1219189698 4.118727581e-22)
(-0.1185227739 0.1096297139 1.260618091e-22)
(-0.1398095259 0.09077905265 -5.580592566e-24)
(-0.1590166704 0.06581242317 5.552971632e-24)
(-0.1751404159 0.03520922663 0)
(-0.186950267 -0.0001944901905 2.911527577e-23)
(-0.1930116319 -0.03889362011 4.694453281e-24)
(-0.1917756012 -0.07843356337 -1.07638693e-22)
(-0.1817824466 -0.1151801725 8.000207601e-23)
(-0.1620526142 -0.1442529947 -2.418852485e-22)
(-0.1327025354 -0.1598478978 0)
(-0.09577617087 -0.1563049927 0)
(-0.05601468248 -0.1302931987 0)
(-0.0214779198 -0.08380838931 0)
(-0.001500321404 -0.02665429453 5.57044581e-22)
(-0.0002874252305 0.04015823742 0)
(-0.01169336362 0.09543012128 -3.492449418e-22)
(-0.02924368496 0.1293994436 8.931532875e-22)
(-0.05060817099 0.1469213383 3.616583988e-22)
(-0.07369889027 0.1519666226 0)
(-0.09744898978 0.1472686197 -3.861871449e-22)
(-0.1211039802 0.1344135916 -3.173912139e-23)
(-0.1440291221 0.1141356094 3.332613229e-22)
(-0.1655107436 0.08669836553 1.769211279e-22)
(-0.18462116 0.05229156012 -4.059553768e-23)
(-0.2001288581 0.01141940804 1.656729317e-23)
(-0.2104585442 -0.03471026505 -8.263619232e-24)
(-0.213717213 -0.0837601839 3.371289811e-22)
(-0.2078180163 -0.1318690195 0)
(-0.1908205165 -0.1732682272 2.420021078e-22)
(-0.1616305919 -0.2002516963 5.77204587e-24)
(-0.1211638669 -0.2040049555 -5.85812416e-24)
(-0.07384830176 -0.1772060544 1.547561724e-22)
(-0.02971715365 -0.118860402 -5.432793918e-24)
(-0.002179473599 -0.04005274122 0)
(-0.0002117796143 0.0467138064 0)
(-0.01125006399 0.1105436352 0)
(-0.02815618957 0.1497272891 -5.022107137e-22)
(-0.04874451226 0.1701428409 -1.880772772e-23)
(-0.07100031306 0.1766171467 2.03811899e-23)
(-0.09399370913 0.1724452197 -2.014054553e-23)
(-0.1171424405 0.1594813329 -2.316575954e-23)
(-0.1400168674 0.138476712 -3.029374167e-22)
(-0.1621317953 0.1095143574 6.69833854e-23)
(-0.1827948503 0.07245219762 4.512501745e-23)
(-0.2009825458 0.02735150626 -4.577023898e-23)
(-0.2152260166 -0.02508309121 0)
(-0.2235551289 -0.08297822481 -7.83717459e-23)
(-0.2234619554 -0.1427193052 0)
(-0.2120664656 -0.1981748132 -3.738981964e-22)
(-0.1867418204 -0.2400696306 5.243899775e-22)
(-0.1464422305 -0.2560697163 0)
(-0.09394441255 -0.2331143065 -1.493134629e-22)
(-0.04021934332 -0.1639567791 1.936662962e-22)
(-0.003201024241 -0.05860899761 -3.410646189e-22)
(-0.0002016212486 0.05297337282 0)
(-0.01067297542 0.1248112259 9.182024511e-22)
(-0.02628511131 0.1687343736 -2.440441361e-23)
(-0.04501192311 0.1916366816 9.19248078e-22)
(-0.06494695648 0.1992836206 -2.511827302e-23)
(-0.08536738636 0.1956031158 2.838536727e-23)
(-0.1059318079 0.1827830826 -2.812625593e-23)
(-0.1264938442 0.161654757 -1.660738387e-23)
(-0.1469013215 0.1321747169 -5.25967173e-22)
(-0.1668476539 0.09389693428 -8.905683234e-24)
(-0.1857322748 0.04640798907 9.659207372e-24)
(-0.2024801627 -0.01023415051 3.312790695e-22)
(-0.2154172926 -0.07499330504 -5.820149258e-22)
(-0.2220224191 -0.1450253287 0)
(-0.2188040956 -0.214669442 8.886218543e-22)
(-0.2016259886 -0.2739944678 -4.939895988e-22)
(-0.1668635899 -0.307573838 -1.571905463e-23)
(-0.1140213985 -0.2953743882 0)
(-0.05288433204 -0.2195751942 -1.88931158e-22)
(-0.004749115783 -0.08377080422 3.359719273e-22)
(-0.000364293909 0.05902098384 1.550876364e-23)
(-0.01049638489 0.1379826564 -8.763391264e-22)
(-0.02441522263 0.1856728846 -1.156969189e-21)
(-0.04026920315 0.210130171 -8.62818242e-22)
(-0.05630980244 0.2182268999 0)
(-0.07215155243 0.2146121855 3.513486368e-23)
(-0.08779563981 0.2018740571 -7.29420472e-23)
(-0.1034601108 0.1809974088 5.867356153e-23)
(-0.1194025895 0.1518985909 3.021075244e-22)
(-0.1357976578 0.1139157862 -1.12809897e-23)
(-0.1526129235 0.06621654917 0)
(-0.1694568333 0.008180718436 -3.603612944e-22)
(-0.185280532 -0.06015546277 7.515103881e-22)
(-0.1980488431 -0.1372696407 8.831112913e-22)
(-0.2043578552 -0.2189206066 -5.29607046e-22)
(-0.1991000059 -0.2959652359 5.162205391e-22)
(-0.1760617257 -0.3514008476 1.077947877e-23)
(-0.1300893662 -0.3584087854 -1.095258342e-23)
(-0.06688787102 -0.2843225557 -8.223326408e-23)
(-0.007083265651 -0.1169942455 0)
(-0.0009096816051 0.06539865607 -1.91134733e-23)
(-0.01167680512 0.150276992 -1.326878796e-21)
(-0.0238907395 0.2000593928 1.094152913e-21)
(-0.03601634583 0.2244143312 6.734477935e-22)
(-0.04657694592 0.2316516954 6.014218313e-22)
(-0.05577503028 0.2272332993 6.643485768e-22)
(-0.0641177542 0.2141730223 -4.458337136e-23)
(-0.0722814449 0.1936468593 -3.461097934e-22)
(-0.08097596783 0.1656021406 2.152018578e-22)
(-0.09087843002 0.1292717452 0)
(-0.1025613695 0.0835332025 0)
(-0.1163687747 0.02720345522 2.655257262e-22)
(-0.13216524 -0.04061612918 8.194651949e-23)
(-0.1489309936 -0.120008599 -2.821340727e-22)
(-0.164133384 -0.208925647 -5.410954134e-23)
(-0.1727916277 -0.3006945942 1.302000311e-22)
(-0.1670337136 -0.3793279164 -3.400092935e-22)
(-0.1365305215 -0.413640029 -1.597498499e-23)
(-0.08018277472 -0.3538280289 8.212088143e-23)
(-0.01050760708 -0.1594108347 -6.032801484e-22)
(-0.002260602417 0.07348762346 0)
(-0.01580460528 0.1626486312 2.145743113e-21)
(-0.02665276591 0.2117852033 0)
(-0.03422706595 0.2333886367 -1.351725582e-21)
(-0.03759886272 0.2377707028 6.184381015e-23)
(-0.03800274393 0.2312502493 -6.192653143e-22)
(-0.03668931864 0.2171861891 -4.755984165e-22)
(-0.03489757085 0.1968914485 8.300713758e-22)
(-0.03379592331 0.1703339025 -1.885570976e-22)
(-0.03450642064 0.1367232657 0)
(-0.03812331426 0.09479906125 0)
(-0.04565727294 0.04304595551 2.410780511e-23)
(-0.05791500858 -0.02013435156 -6.006908648e-22)
(-0.07515240183 -0.09620301178 -4.309355531e-22)
(-0.09645741459 -0.1855522386 4.637690436e-22)
(-0.1183509257 -0.2853534647 -6.488304382e-22)
(-0.1332749858 -0.3838351888 9.118768084e-23)
(-0.1265371318 -0.4504322083 2.941179862e-23)
(-0.08899224316 -0.4198500293 5.660698202e-22)
(-0.015269219 -0.2111699719 6.021433016e-22)
(-0.005180988829 0.08597985032 0)
(-0.02525658118 0.1766268239 1.4656049e-22)
(-0.03483656151 0.2205923901 -4.916898729e-23)
(-0.036404119 0.2354813464 7.642506893e-22)
(-0.03019019489 0.2343360335 -7.004968977e-22)
(-0.01917231381 0.2241563632 4.746207488e-23)
(-0.005622440792 0.2083496542 -1.018578668e-22)
(0.008561814649 0.1881225329 -3.389680207e-22)
(0.02179081815 0.1633909383 2.062716062e-22)
(0.0326198669 0.1333253329 0)
(0.03957693817 0.09664289114 0)
(0.04116295109 0.05174320122 -2.902544052e-22)
(0.03577817845 -0.003252542237 0)
(0.0219757905 -0.0705808066 -5.512029302e-22)
(-0.001270195899 -0.1525710163 -1.491940699e-23)
(-0.03310920191 -0.2505927348 2.559586418e-23)
(-0.06909595535 -0.3599319817 2.202854465e-22)
(-0.09228062517 -0.4575403363 4.789574961e-24)
(-0.08718185731 -0.4698105709 -5.789686595e-22)
(-0.0210313715 -0.2698956825 0)
(-0.01111636265 0.1085974429 0)
(-0.04248989656 0.1947140843 -8.84809453e-22)
(-0.04795746292 0.2258173055 -5.410852587e-22)
(-0.03919898463 0.2282105176 4.543644533e-22)
(-0.01878331868 0.2182295602 -1.710077065e-24)
(0.007658123331 0.2028190967 -4.560836447e-23)
(0.03667292072 0.1847597791 5.696375997e-22)
(0.06582249334 0.1647105457 -2.766749078e-23)
(0.09326367201 0.142312594 -2.069673392e-22)
(0.1173817133 0.1166282379 3.142071881e-23)
(0.1365391457 0.086412955 -3.425781092e-23)
(0.1489604823 0.05017870682 -3.690474107e-23)
(0.1525218362 0.006161387955 3.205538588e-22)
(0.1449317023 -0.04795914058 6.119432672e-22)
(0.1235116657 -0.1153034695 -5.101026983e-22)
(0.08633177892 -0.2004181351 -1.61598323e-22)
(0.03198778495 -0.3067795538 1.53136164e-22)
(-0.02362345311 -0.4239826026 7.293759608e-23)
(-0.06492503433 -0.4871600145 1.913303168e-21)
(-0.02509984134 -0.3291534854 2.95500455e-21)
(-0.02004677217 0.1460730351 -4.390099086e-23)
(-0.06416446562 0.2112954005 4.417271196e-23)
(-0.05070360153 0.2177290656 1.000158621e-21)
(-0.01934340192 0.2014663471 -8.267723515e-24)
(0.02414101393 0.1809056527 0)
(0.07153647413 0.1606914338 4.363520312e-23)
(0.1190647506 0.1416480311 -2.273739321e-22)
(0.1644706128 0.1233172317 -9.027492219e-23)
(0.2062187987 0.1048114522 3.680547076e-23)
(0.2429581195 0.08507177339 -1.701580198e-23)
(0.2732149807 0.06296238607 3.429834239e-23)
(0.2952484603 0.0372642061 -6.592451301e-23)
(0.3066926232 0.006536488539 -9.303632257e-23)
(0.3049700516 -0.0308763323 1.517001364e-22)
(0.2863905502 -0.07786177445 0)
(0.247054359 -0.1399292526 1.505529288e-22)
(0.1810902406 -0.2266296184 2.560012643e-22)
(0.09604302117 -0.3443890567 0)
(-0.006698373395 -0.4552205547 -3.675652439e-21)
(-0.01922420598 -0.3777533264 -2.892633513e-21)
(-0.0259194224 0.2276831895 -9.514134433e-22)
(-0.03998310039 0.2238218658 -1.388949993e-22)
(0.03656120976 0.1810583477 -2.335508389e-22)
(0.1090494927 0.1451053202 -1.193700111e-22)
(0.1817174495 0.1172437009 -4.295689098e-23)
(0.2490064922 0.09627817746 9.782701136e-23)
(0.3100302953 0.08002433643 -1.408517646e-22)
(0.3646169851 0.06656763947 1.297108329e-22)
(0.4126210044 0.05449159941 -8.619684717e-23)
(0.4536207843 0.04270908724 1.132178954e-25)
(0.4867838896 0.03032339753 1.527682682e-23)
(0.51074162 0.0165296175 7.996922506e-23)
(0.523656845 0.0005371513005 -1.811068407e-22)
(0.5231775908 -0.01863311303 -1.617103338e-22)
(0.505230718 -0.04286428965 -4.262732047e-23)
(0.4658703655 -0.07633199809 0)
(0.3952688222 -0.1286088401 -1.846504771e-22)
(0.2916064815 -0.2208467816 8.148788961e-22)
(0.1197451329 -0.3525016642 1.63160604e-21)
(0.02670537707 -0.3775497414 2.172658014e-21)
(0.2142895418 0.1347448137 9.864911872e-22)
(0.2776314144 0.09870515524 0)
(0.431659559 0.05810420427 -2.594262314e-22)
(0.5304750719 0.03846263066 -1.741615308e-22)
(0.6016963263 0.02623411596 0)
(0.6571191704 0.01831913939 -6.008793451e-23)
(0.7015201848 0.01313592671 6.37764344e-23)
(0.7376027371 0.009542081646 -1.800049011e-23)
(0.7669351533 0.006804469484 2.885808594e-23)
(0.7902089842 0.004464800251 2.314914095e-23)
(0.807453984 0.002221416203 0)
(0.8182609047 -0.0001499539874 -2.872923284e-23)
(0.8216490956 -0.0027237213 0)
(0.8162389117 -0.005712572925 2.738020116e-23)
(0.7991330989 -0.0096113265 1.421605832e-23)
(0.767998613 -0.01500253597 -5.79947472e-23)
(0.7106556287 -0.02502522454 -2.535676507e-22)
(0.623518432 -0.04204288348 -6.918121695e-22)
(0.4230090982 -0.09182971126 0)
(0.2705674598 -0.1524021979 -2.119485827e-21)
)


// ************************************************************************* //
