/*--------------------------------*- C++ -*----------------------------------*\
  =========                 |
  \\      /  F ield         | OpenFOAM: The Open Source CFD Toolbox
   \\    /   O peration     | Website:  https://openfoam.org
    \\  /    A nd           | Version:  13
     \\/     M anipulation  |
\*---------------------------------------------------------------------------*/
FoamFile
{
    format      ascii;
    class       scalarField;
    location    "45.43";
    object      p_all;
}
// * * * * * * * * * * * * * * * * * * * * * * * * * * * * * * * * * * * * * //


400
(
1.762950877e-08
-0.0005474871945
-0.0008895399256
-0.001017032251
-0.0009381721424
-0.0006853163547
-0.0002960352989
0.0001936838116
0.000747318707
0.001324382496
0.001879229381
0.002358995372
0.002708285436
0.00287401042
0.002814646171
0.002512204786
0.001987156403
0.00129663391
0.0006377124191
4.181239503e-05
0.000588171327
6.872625081e-06
-0.0003568711542
-0.0004992082891
-0.0004685567737
-0.0002914862501
2.615075952e-06
0.0003844528894
0.0008226187201
0.001279851146
0.001716309008
0.002080835707
0.002323056332
0.002395602467
0.002264605634
0.001921298496
0.001392433497
0.0007430651061
0.0001454227055
-0.0005172655083
0.0009524270184
0.0003080208202
-9.323616272e-05
-0.0002395772493
-0.0002334670969
-0.0001049735653
0.0001218648711
0.0004257547564
0.0007829581169
0.00116146628
0.001529481481
0.001832875276
0.002021720102
0.002047293094
0.001874458177
0.001493399985
0.0009281010454
0.0002351209687
-0.0004633475611
-0.001300321563
0.0009761316119
0.0002579634449
-0.0001922835933
-0.0003445812174
-0.0003538506912
-0.0002568802934
-7.430070662e-05
0.0001812985267
0.0004963732696
0.0008506831846
0.001203030306
0.001510497786
0.001712287451
0.001747870361
0.001568379999
0.00115043096
0.000505845815
-0.0003186383761
-0.001233970965
-0.002384770802
0.0004804710916
-0.0002850222559
-0.0007639269912
-0.0009156267674
-0.0009366522846
-0.0008682323648
-0.0007253354753
-0.0005084091193
-0.000217165919
0.0001391462001
0.0005300904669
0.0009073909598
0.001199822235
0.00132650021
0.001211013643
0.0008001683913
7.991647088e-05
-0.0009176813564
-0.002127666041
-0.003656165751
-0.0006863702216
-0.001467161408
-0.001956214785
-0.00210727073
-0.002150049838
-0.002126700981
-0.002042323201
-0.001879705613
-0.001617594069
-0.001245560127
-0.0007791423644
-0.0002628817693
0.00022059754
0.0005614640798
0.0006378069351
0.0003414951491
-0.0003930668142
-0.001564104386
-0.003134889421
-0.005142126945
-0.002661839554
-0.003423550852
-0.003915419909
-0.004080802838
-0.004178174627
-0.00424723043
-0.004278250799
-0.0042291974
-0.004047594972
-0.003689642034
-0.003140787542
-0.002426787623
-0.001633542817
-0.000903475012
-0.0004248688947
-0.000398737573
-0.0009882870833
-0.002260628252
-0.004232788812
-0.006828368496
-0.005555044823
-0.006269965755
-0.006768251218
-0.00698219981
-0.007195593498
-0.007443496432
-0.007697206802
-0.007882275323
-0.007902242868
-0.007660684673
-0.007087416878
-0.006159559499
-0.004943810277
-0.003604931397
-0.002414001268
-0.001714584999
-0.00184327306
-0.003015087952
-0.005368523969
-0.008662320181
-0.009435272413
-0.01008160608
-0.0105984716
-0.01091071048
-0.01132611543
-0.01187600467
-0.01251138758
-0.0131197677
-0.01354793068
-0.01362350217
-0.01318262387
-0.01212126634
-0.01042816981
-0.008256700943
-0.005956473166
-0.004062050337
-0.003190315901
-0.003843217793
-0.006426615107
-0.01049180497
-0.01431704245
-0.01487603447
-0.01542302174
-0.01588226381
-0.01659010215
-0.01758023779
-0.0187871047
-0.02005924335
-0.02117773666
-0.02187379417
-0.0218575735
-0.02087245521
-0.01877211162
-0.01562028283
-0.01179525423
-0.008037515534
-0.005360073671
-0.004760332988
-0.007181354976
-0.01197943743
-0.02015455126
-0.02060478002
-0.02117496943
-0.02179697255
-0.02285232801
-0.0243905877
-0.02633946212
-0.02851385538
-0.03062780399
-0.03230374379
-0.03309550305
-0.03254095181
-0.03028272788
-0.02617892483
-0.02052511798
-0.01420414557
-0.008691753533
-0.005726823301
-0.007219469895
-0.01246661766
-0.02685658056
-0.02716233851
-0.02770277453
-0.02842318975
-0.02978938991
-0.03188933028
-0.03465912046
-0.03788988945
-0.04123418112
-0.04420531202
-0.04618838945
-0.0464790389
-0.04446333836
-0.03966028446
-0.03212126829
-0.02269898989
-0.01326679521
-0.006486154215
-0.005808845683
-0.01076544167
-0.03433494217
-0.03441834997
-0.03478968742
-0.03540476943
-0.03689208054
-0.03941023457
-0.04292028176
-0.04719792152
-0.05184032053
-0.05625864003
-0.05968000031
-0.06119116539
-0.05977978932
-0.05465603398
-0.04544130862
-0.03269994773
-0.0184533258
-0.006246132014
-0.001674175172
-0.004873809619
-0.04261008342
-0.0422796545
-0.04219587326
-0.04229619254
-0.04351393843
-0.04611663528
-0.05009985443
-0.05522062943
-0.06101531624
-0.06679643189
-0.0716403801
-0.07441328196
-0.07383284215
-0.06867516025
-0.05807222092
-0.04206209166
-0.02244029952
-0.003257466201
0.007346828296
0.008341224518
-0.05201058759
-0.05076124206
-0.04967806536
-0.04857916381
-0.04892702877
-0.05112045798
-0.05517315703
-0.06079650942
-0.06743582123
-0.07429019213
-0.08028307294
-0.0840765279
-0.08413096058
-0.07883784581
-0.06684310683
-0.04752371376
-0.02212774099
0.005501523047
0.02471512579
0.03352716625
-0.06365618515
-0.06018948307
-0.05709762951
-0.05376468039
-0.05246582461
-0.05368049546
-0.05736534478
-0.06313854704
-0.07026302285
-0.07780148837
-0.08449317942
-0.08878639301
-0.08889871149
-0.08283998494
-0.06885106751
-0.04562108826
-0.01375176504
0.02441666804
0.05553942163
0.07735566223
-0.08018673873
-0.07107529593
-0.06412155456
-0.05716586165
-0.05343202531
-0.05321611498
-0.05625987835
-0.06191490947
-0.06926005987
-0.07711805112
-0.08401331534
-0.08815277165
-0.08748120177
-0.07965691857
-0.06247976304
-0.03405067417
0.005564717419
0.05859389631
0.1058229364
0.1480676443
-0.110508121
-0.08585542842
-0.07160739847
-0.05897243779
-0.05191484891
-0.04988460641
-0.05210442751
-0.05751059286
-0.06486142555
-0.07271031125
-0.07934173006
-0.08271502471
-0.08052074674
-0.06988764545
-0.0482327076
-0.01272273982
0.03823603961
0.1071320085
0.1779785715
0.2564764102
-0.1684382939
-0.09990958673
-0.07500968325
-0.05479931314
-0.04462046657
-0.04158701297
-0.0437196593
-0.04938360345
-0.05701927072
-0.06497284554
-0.07136371341
-0.07398198274
-0.07013077471
-0.05701424789
-0.0310288452
0.01192919886
0.07559939056
0.1664041591
0.2761619379
0.437704201
-0.398429574
-0.1381007352
-0.07497184522
-0.04708986392
-0.03355094469
-0.03003176387
-0.03280398516
-0.03926681267
-0.04756061377
-0.05594117189
-0.06250218667
-0.06503125067
-0.06099648208
-0.0469702712
-0.01875705848
0.02993532581
0.1069555831
0.2334271726
0.4198801279
0.7800233095
)


// ************************************************************************* //
