/*--------------------------------*- C++ -*----------------------------------*\
  =========                 |
  \\      /  F ield         | OpenFOAM: The Open Source CFD Toolbox
   \\    /   O peration     | Website:  https://openfoam.org
    \\  /    A nd           | Version:  13
     \\/     M anipulation  |
\*---------------------------------------------------------------------------*/
FoamFile
{
    format      ascii;
    class       scalarField;
    location    "31.28";
    object      p_all;
}
// * * * * * * * * * * * * * * * * * * * * * * * * * * * * * * * * * * * * * //


400
(
4.134455282e-07
-0.0005470320702
-0.0008890864742
-0.001016576137
-0.0009377083979
-0.0006848428178
-0.0002955575527
0.0001941567786
0.0007477831549
0.001324843501
0.001879695788
0.002359472296
0.002708771726
0.002874500855
0.002815136034
0.002512693464
0.001987646992
0.001297130016
0.0006382148365
4.231963934e-05
0.0005886213728
7.326874922e-06
-0.0003564149846
-0.0004987534844
-0.0004681026353
-0.0002910257256
3.087981284e-06
0.0003849363091
0.0008231038834
0.001280330231
0.001716780926
0.002081306209
0.002323531868
0.002396086025
0.002265095688
0.001921791904
0.001392928959
0.000743564039
0.0001459263967
-0.0005167578021
0.0009528706229
0.000308469078
-9.277962451e-05
-0.0002391154641
-0.0002330056097
-0.0001045139738
0.0001223262645
0.0004262228823
0.0007834338994
0.00116194562
0.001529961547
0.001833354334
0.002022198768
0.002047773265
0.001874941363
0.001493886783
0.0009285920024
0.0002356176852
-0.0004628439021
-0.001299814787
0.0009765775565
0.0002584086079
-0.0001918327552
-0.0003441205466
-0.000353381731
-0.0002564083361
-7.383011675e-05
0.0001817676666
0.0004968442597
0.0008511587435
0.001203510842
0.001510981828
0.001712772134
0.001748353564
0.001568862167
0.001150914945
0.0005063349847
-0.0003181415443
-0.001233465595
-0.00238426145
0.0004809231456
-0.0002845706293
-0.0007634757793
-0.0009151702592
-0.0009361861127
-0.0008677570652
-0.0007248557214
-0.0005079295125
-0.0002166872617
0.0001396265188
0.000530574729
0.0009078798846
0.001200313539
0.001326990448
0.001211501601
0.0008006565916
8.040919538e-05
-0.0009171809572
-0.00212715696
-0.003655651671
-0.0006859153944
-0.001466700574
-0.001955753453
-0.002106808022
-0.002149581622
-0.002126224046
-0.002041837925
-0.00187921527
-0.001617101609
-0.001245065933
-0.0007786454605
-0.0002623815952
0.0002210995955
0.0005619652838
0.0006383058242
0.0003419933033
-0.0003925658716
-0.001563597515
-0.003134374923
-0.005141606127
-0.002661381883
-0.003423085699
-0.003914949081
-0.004080328351
-0.004177695531
-0.004246744437
-0.004277756461
-0.004228695369
-0.004047087159
-0.003689129846
-0.003140271805
-0.002426269457
-0.001633024389
-0.0009029588893
-0.0004243562767
-0.0003982272439
-0.0009877762022
-0.002260113662
-0.00423226788
-0.006827840285
-0.005554576153
-0.00626949461
-0.006767773211
-0.006981714531
-0.007195100375
-0.007442994853
-0.007696696405
-0.007881756528
-0.007901716826
-0.007660152533
-0.007086880065
-0.006159020094
-0.004943271931
-0.003604397558
-0.002413473472
-0.001714062183
-0.001842752335
-0.003014565562
-0.005367996215
-0.00866178485
-0.009434786264
-0.01008112157
-0.01059798354
-0.01091021474
-0.01132560887
-0.01187548611
-0.01251085749
-0.01311922765
-0.01354738255
-0.01362294739
-0.01318206375
-0.01212070387
-0.01042760918
-0.008256146649
-0.005955927769
-0.004061513409
-0.003189784412
-0.0038426871
-0.006426080358
-0.01049126324
-0.01431653855
-0.01487553243
-0.01542251915
-0.01588175515
-0.01658958188
-0.01757970272
-0.01878655461
-0.02005868035
-0.02117716375
-0.02187321385
-0.02185698792
-0.02087186736
-0.01877152608
-0.01561970484
-0.01179468754
-0.008036960934
-0.005359528689
-0.004759792596
-0.007180813291
-0.0119788905
-0.02015403166
-0.02060426179
-0.02117445123
-0.02179644932
-0.02285179331
-0.0243900366
-0.0263388931
-0.0285132703
-0.03062720644
-0.03230313744
-0.03309489119
-0.03254033824
-0.0302821174
-0.0261783229
-0.02052452907
-0.01420357171
-0.008691193533
-0.005726272756
-0.007218922487
-0.01246606804
-0.02685604635
-0.02716180705
-0.0277022431
-0.02842265358
-0.02978884229
-0.0318887653
-0.03465853569
-0.03788928649
-0.04123356392
-0.04420468525
-0.04618775773
-0.04647840758
-0.04446271121
-0.03965966698
-0.03212066478
-0.02269840276
-0.01326622447
-0.006485596883
-0.005808296189
-0.01076489408
-0.03433439457
-0.03441780751
-0.03478914648
-0.03540422478
-0.03689152495
-0.03940966147
-0.04291968829
-0.04719730942
-0.05183969429
-0.05625800535
-0.05967936283
-0.06119053002
-0.0597791622
-0.05465541868
-0.04544070785
-0.03269936263
-0.01845275639
-0.006245576543
-0.001673630243
-0.004873270875
-0.04260952591
-0.04227910394
-0.04219532725
-0.04229564553
-0.04351338257
-0.04611606334
-0.05009926313
-0.05522002082
-0.06101469528
-0.06679580531
-0.07163975462
-0.07441266338
-0.07383223532
-0.06867456793
-0.05807164374
-0.04206152815
-0.02243974813
-0.003256925165
0.007347359656
0.008341746986
-0.05201002633
-0.05076068893
-0.04967752031
-0.04857862174
-0.04892648137
-0.05111989749
-0.05517257927
-0.06079591681
-0.0674352181
-0.07428958615
-0.08028247157
-0.08407593758
-0.08413038634
-0.07883728936
-0.06684256712
-0.04752318628
-0.02212722186
0.005502036804
0.02471563427
0.03352766618
-0.06365562834
-0.0601889356
-0.05709709329
-0.05376415101
-0.05246529332
-0.05367995378
-0.05736478622
-0.06313797895
-0.07026244343
-0.0778009072
-0.08449260472
-0.08878583223
-0.08889817188
-0.08283946491
-0.0688505666
-0.04562059981
-0.01375128482
0.02441714837
0.055539901
0.07735613703
-0.08018619563
-0.07107476344
-0.06412103535
-0.05716535156
-0.05343151481
-0.05321559475
-0.05625934329
-0.0619143603
-0.06925950055
-0.07711748968
-0.08401276041
-0.08815223129
-0.08748068058
-0.07965642413
-0.06247929108
-0.03405021866
0.005565154926
0.05859435848
0.1058233897
0.1480680962
-0.1105075993
-0.08585491769
-0.07160690055
-0.05897194829
-0.05191435842
-0.04988410382
-0.05210390827
-0.0575100575
-0.06486087886
-0.07270976143
-0.07934118665
-0.08271449707
-0.08052024437
-0.06988716532
-0.04823225068
-0.01272230065
0.03823646823
0.1071324406
0.1779790048
0.2564768428
-0.1684377929
-0.09990909473
-0.07500919999
-0.05479883745
-0.04461998737
-0.0415865204
-0.04371914874
-0.04938307568
-0.05701873077
-0.0649723016
-0.07136317483
-0.073981458
-0.07013026964
-0.05701377014
-0.03102839097
0.01192963486
0.07559981546
0.1664045821
0.2761623614
0.4377046272
-0.398429075
-0.138100245
-0.07497136623
-0.04708939198
-0.03355046974
-0.03003127653
-0.03280348065
-0.03926629134
-0.04756008005
-0.05594063325
-0.06250165193
-0.06503072814
-0.060995978
-0.04696979017
-0.01875659928
0.02993576732
0.106956013
0.2334275987
0.4198805538
0.7800237373
)


// ************************************************************************* //
