/*--------------------------------*- C++ -*----------------------------------*\
  =========                 |
  \\      /  F ield         | OpenFOAM: The Open Source CFD Toolbox
   \\    /   O peration     | Website:  https://openfoam.org
    \\  /    A nd           | Version:  13
     \\/     M anipulation  |
\*---------------------------------------------------------------------------*/
FoamFile
{
    format      ascii;
    class       vectorField;
    location    "37.33";
    object      U_all;
}
// * * * * * * * * * * * * * * * * * * * * * * * * * * * * * * * * * * * * * //


400
(
(1.099812509e-05 -3.783719941e-05 0)
(-0.0006661035518 0.0004130417545 -1.55076808e-23)
(-0.002185376539 0.0009203934208 0)
(-0.004047833103 0.001312780592 0)
(-0.005971867931 0.001535065502 6.844935444e-25)
(-0.007762782731 0.001569847634 4.150575823e-24)
(-0.009284544379 0.001423563434 -7.370497843e-24)
(-0.01043593987 0.00111972321 7.533482484e-24)
(-0.01113681213 0.0006960827104 -2.095528603e-25)
(-0.01132710905 0.0002030780194 -3.994923741e-24)
(-0.0109717706 -0.0003002330102 5.803837442e-24)
(-0.01007232662 -0.0007475158761 -5.929712789e-23)
(-0.008679879552 -0.001075562387 -6.552879141e-23)
(-0.006902852959 -0.001233044307 -7.784595267e-23)
(-0.004910738131 -0.001192638666 4.573766871e-24)
(-0.002927231694 -0.0009619207232 -4.138107776e-24)
(-0.001205298495 -0.0005912119747 -1.99885957e-22)
(-1.906744943e-05 -0.0001698830982 0)
(0.0005181548523 0.0001720855878 1.510203778e-25)
(0.0002227519607 0.0003059783358 -2.56106575e-24)
(-0.0002633665703 0.0008289622139 1.3833979e-25)
(-0.002703308944 0.003383838169 1.560556347e-23)
(-0.006907278145 0.005604498229 1.554458841e-25)
(-0.01195231911 0.007008204719 -8.494154749e-25)
(-0.01713504182 0.007553773578 1.161970875e-24)
(-0.02197535033 0.007294198003 1.306711974e-23)
(-0.02611075591 0.006321893424 1.38988002e-24)
(-0.02926564193 0.004754193018 -7.285171844e-24)
(-0.03122672438 0.002737152029 1.015391791e-23)
(-0.03184200391 0.0004524063333 4.510315769e-24)
(-0.03102760861 -0.001884143727 -6.319130546e-24)
(-0.02879316114 -0.004023028022 2.961287516e-24)
(-0.02527137993 -0.005708352657 3.895624645e-23)
(-0.0207319469 -0.006707407804 -1.954830142e-24)
(-0.01558962576 -0.006854139234 3.754614484e-24)
(-0.01038513367 -0.006097464691 -9.74138724e-23)
(-0.005730271238 -0.004546188105 9.638209012e-23)
(-0.002233365382 -0.00250742115 -3.962164489e-25)
(-0.0001817746523 -0.0005023742845 4.062091654e-25)
(8.343559197e-05 0.000609923806 0)
(-0.000418824154 0.002935076439 -2.910792258e-25)
(-0.004647876137 0.008804010787 1.702537824e-23)
(-0.01137196033 0.01324041911 -8.279060584e-24)
(-0.01932728899 0.01579203628 -2.074455588e-25)
(-0.02747411244 0.01652999579 2.03793639e-25)
(-0.03511778098 0.0156444126 6.878842439e-27)
(-0.04171343874 0.01335997269 -1.222359871e-24)
(-0.04683570659 0.009919768997 -4.552376623e-25)
(-0.05014987835 0.005602432653 -1.06321921e-23)
(-0.05141230832 0.0007444212473 0)
(-0.05047792246 -0.004241778628 0)
(-0.04733705386 -0.008887184326 2.671137448e-23)
(-0.04215927199 -0.01268176615 2.813119342e-23)
(-0.03531436945 -0.0151360484 -1.646221748e-24)
(-0.02738995994 -0.01586189284 4.846053791e-23)
(-0.0191700574 -0.01467334021 9.419675188e-23)
(-0.01156090585 -0.01169360393 3.97597067e-23)
(-0.005465409986 -0.007450744636 4.143261654e-25)
(-0.001451098417 -0.002936046078 1.072951183e-25)
(-9.0726839e-05 0.0002258746435 0)
(-0.0005024635359 0.006045347329 -4.249487728e-23)
(-0.006402739747 0.01637074961 -1.692760312e-23)
(-0.01553502237 0.02355932799 8.205898992e-24)
(-0.02627911606 0.02744161805 0)
(-0.03728746028 0.02832101425 0)
(-0.04769036466 0.02658771886 0)
(-0.05679661761 0.02263119818 -4.475218137e-26)
(-0.06405382582 0.01683608938 -2.135347016e-24)
(-0.06901079968 0.00962218234 0)
(-0.07130826341 0.001491050922 1.635690623e-24)
(-0.07070852068 -0.00693650089 2.80296367e-25)
(-0.06713038136 -0.01493018384 -2.810811908e-25)
(-0.06069904573 -0.02166727606 0)
(-0.05180749783 -0.02631605176 4.13355336e-23)
(-0.04114991181 -0.02816070329 -4.681760705e-23)
(-0.02971969896 -0.02677371786 -2.762110488e-23)
(-0.01873716417 -0.02221530228 -3.961122741e-23)
(-0.009488026152 -0.01521922096 7.795696801e-25)
(-0.002976878949 -0.007298195754 9.789844125e-23)
(-0.0002318795248 -0.0008661694747 0)
(-0.0005316133605 0.01009501293 4.270151808e-23)
(-0.007983591788 0.02595218766 4.784434823e-25)
(-0.01939687116 0.03642881751 -4.675159976e-25)
(-0.03282381777 0.04185519535 0)
(-0.04664688008 0.04289484118 7.782125568e-25)
(-0.05985228383 0.04020073093 -7.674223474e-25)
(-0.07163289847 0.03434740949 3.672006169e-23)
(-0.08132749512 0.02585663612 1.847915743e-23)
(-0.08836599189 0.01527298146 6.238121749e-24)
(-0.09225467578 0.003246148076 -1.63759622e-24)
(-0.09260377856 -0.009407828367 0)
(-0.08917553742 -0.02167477347 4.371051387e-25)
(-0.08195977765 -0.03236744194 1.009166971e-23)
(-0.07126884299 -0.04021249185 -4.349603765e-23)
(-0.05782018007 -0.04402045392 1.933059558e-24)
(-0.04278582406 -0.04294828523 4.217672785e-23)
(-0.02775449935 -0.03683346291 -3.842337457e-25)
(-0.01455062054 -0.02652720614 0)
(-0.004859461342 -0.01408454411 5.436561585e-23)
(-0.0003641482594 -0.002846953747 -2.565023435e-22)
(-0.0005272210865 0.01499927293 9.840999583e-23)
(-0.009377923786 0.03739021244 -4.907290867e-25)
(-0.02288182325 0.05170221591 0)
(-0.03883042711 0.05894181561 0)
(-0.05538655592 0.060255731 -8.731853878e-23)
(-0.07142875171 0.05661899733 -8.498842102e-23)
(-0.08606652396 0.04880167744 -4.067234591e-23)
(-0.09855084048 0.03743979846 -1.5042235e-23)
(-0.1081945101 0.02315983682 -5.368250108e-24)
(-0.1143444508 0.006709680452 -8.174661396e-24)
(-0.1164045985 -0.0109329164 6.600764291e-24)
(-0.1138937188 -0.02848944173 8.825992643e-24)
(-0.1065486793 -0.04437045103 -1.892317421e-23)
(-0.0944680253 -0.05675332436 4.604152503e-24)
(-0.07826855757 -0.06378297291 0)
(-0.05922894621 -0.06393494146 -1.57312729e-23)
(-0.03933981353 -0.05653815251 -2.420663755e-26)
(-0.02114188499 -0.04235808452 0)
(-0.007318701663 -0.02398229126 -1.520596367e-22)
(-0.0005216164923 -0.00592554446 6.056162557e-22)
(-0.0004990820383 0.02064573968 -9.773957235e-23)
(-0.01052950792 0.05045436786 2.831931004e-22)
(-0.02582956972 0.06912509892 1.526832884e-22)
(-0.04402137467 0.07849255945 3.619188706e-24)
(-0.0631073795 0.08029474508 -7.319316841e-23)
(-0.08190403506 0.07588041235 9.043281918e-23)
(-0.09947761809 0.06621689365 -3.590135858e-24)
(-0.1150227167 0.05201694171 -1.729132514e-24)
(-0.1277518953 0.03392358084 2.524104307e-24)
(-0.1368472362 0.0127023329 7.382315025e-24)
(-0.1414710277 -0.01058781741 -6.500533173e-24)
(-0.1408247943 -0.03446023356 -9.787344854e-24)
(-0.1342745751 -0.05692770345 -3.261756369e-23)
(-0.1215450056 -0.07553314609 -3.6609525e-23)
(-0.1029672513 -0.08754258842 5.644851353e-25)
(-0.07976368851 -0.09039208002 0)
(-0.05426681785 -0.08244512332 0)
(-0.02987160562 -0.06397735865 -2.905980548e-24)
(-0.01066285017 -0.0379879421 2.970427922e-24)
(-0.0007350936667 -0.01050089364 1.027871596e-22)
(-0.0004479164488 0.02687250416 0)
(-0.01134923037 0.06480755847 2.001980205e-22)
(-0.02801599219 0.08829615028 8.962086797e-23)
(-0.04799856544 0.1001234707 0)
(-0.06920600845 0.1027076324 1.569855781e-22)
(-0.09044371735 0.09781576627 0)
(-0.110783151 0.08661101476 -1.428374424e-22)
(-0.1294093574 0.06983949321 6.515484009e-24)
(-0.145477143 0.04808231725 0)
(-0.1580351594 0.02201755673 0)
(-0.1660133229 -0.007334433312 -1.374393542e-24)
(-0.1682671331 -0.03838838601 -9.316551001e-25)
(-0.1637064485 -0.06883974318 1.491952514e-22)
(-0.1515208574 -0.09558273906 -4.70465984e-23)
(-0.13151344 -0.1148298456 -2.560873941e-24)
(-0.1045595957 -0.122570321 1.534633446e-24)
(-0.07309349079 -0.1155517789 -1.558841158e-24)
(-0.04135021038 -0.09283114256 0)
(-0.01525230113 -0.05740766897 3.203770459e-24)
(-0.001044308999 -0.01714714278 -1.01290357e-21)
(-0.0003744665831 0.033463037 0)
(-0.01175005918 0.07998916818 -1.128268453e-22)
(-0.0292070755 0.108639069 -6.191102246e-22)
(-0.0503174436 0.1232233716 -3.755283602e-22)
(-0.07296316494 0.1269096771 0)
(-0.09598959006 0.1219255411 4.119428565e-22)
(-0.1185273347 0.1096348465 1.260912664e-22)
(-0.1398146271 0.09078244686 -5.581798221e-24)
(-0.1590221391 0.06581392617 5.554171318e-24)
(-0.1751460834 0.03520881194 0)
(-0.1869559807 -0.0001967401288 2.912119012e-23)
(-0.1930172467 -0.03889753094 4.695806869e-24)
(-0.1917809737 -0.07843886829 -1.076796171e-22)
(-0.1817874272 -0.1151865172 8.004072348e-23)
(-0.1620570292 -0.1442599237 -2.419720373e-22)
(-0.1327061884 -0.1598548397 0)
(-0.09577887306 -0.1563112674 0)
(-0.05601632546 -0.1302980917 0)
(-0.0214785893 -0.08381134095 0)
(-0.001500384419 -0.02665516001 5.572063148e-22)
(-0.0002873901277 0.04016076873 0)
(-0.0116935956 0.09543609458 -3.492989907e-22)
(-0.02924438069 0.1294073353 8.932750552e-22)
(-0.05060946849 0.1469298869 3.617156671e-22)
(-0.07370081996 0.1519748385 0)
(-0.09745150312 0.1472757711 -3.862528113e-22)
(-0.1211069745 0.1344191755 -3.174412638e-23)
(-0.1440324689 0.114139319 3.333090155e-22)
(-0.1655143135 0.0867000603 1.769467786e-22)
(-0.1846248417 0.05229123608 -4.060138891e-23)
(-0.20013257 0.01141716953 1.656819909e-23)
(-0.2104622326 -0.03471422817 -8.265219012e-24)
(-0.2137208408 -0.08376561799 3.371848176e-22)
(-0.2078215379 -0.1318756129 0)
(-0.1908238422 -0.1732755891 2.420889386e-22)
(-0.1616335636 -0.2002593138 5.774694726e-24)
(-0.1211662609 -0.2040121464 -5.860812503e-24)
(-0.07384989263 -0.1772119753 1.54842014e-22)
(-0.02971786587 -0.1188642195 -5.435373628e-24)
(-0.002179544877 -0.0400539832 0)
(-0.0002117201259 0.04671639134 0)
(-0.0112500112 0.1105497915 0)
(-0.02815624445 0.149735472 -5.022732495e-22)
(-0.04874479188 0.1701517293 -1.880990156e-23)
(-0.07100086409 0.1766256847 2.038370476e-23)
(-0.09399451195 0.172452625 -2.014303071e-23)
(-0.1171434268 0.1594870785 -2.316874392e-23)
(-0.1400179475 0.1384804949 -3.029810054e-22)
(-0.1621328864 0.1095160655 6.69860827e-23)
(-0.1827959011 0.07245187094 4.51316287e-23)
(-0.2009835529 0.0273492964 -4.577707419e-23)
(-0.2152270232 -0.0250869639 0)
(-0.2235562174 -0.08298349519 -7.839638753e-23)
(-0.2234632151 -0.142725711 0)
(-0.2120679379 -0.1981820632 -3.739550252e-22)
(-0.1867434491 -0.2400773432 5.244929554e-22)
(-0.1464438248 -0.2560773152 0)
(-0.0939456729 -0.2331209278 -1.493967103e-22)
(-0.0402200076 -0.1639613503 1.937523201e-22)
(-0.003201099977 -0.05861062588 -3.411502739e-22)
(-0.0002015412209 0.05297584269 0)
(-0.0106726202 0.1248172183 9.182843956e-22)
(-0.02628446914 0.1687424303 -2.440677782e-23)
(-0.04501108087 0.1916454833 9.193315793e-22)
(-0.06494597796 0.1992920755 -2.512079146e-23)
(-0.08536628877 0.1956104058 2.838836056e-23)
(-0.1059305691 0.1827886642 -2.812922191e-23)
(-0.1264924241 0.1616583377 -1.660913488e-23)
(-0.1468996911 0.1321762242 -5.260215572e-22)
(-0.1668458229 0.09389646773 -8.906606032e-24)
(-0.18573031 0.04640577076 9.660175987e-24)
(-0.202478176 -0.01023783442 3.313071953e-22)
(-0.2154154679 -0.07499818615 -5.820729166e-22)
(-0.2220209767 -0.1450311635 0)
(-0.2188032135 -0.2146760389 8.887300916e-22)
(-0.2016257533 -0.2740016176 -4.940863666e-22)
(-0.1668639181 -0.3075811704 -1.572215528e-23)
(-0.1140220073 -0.2953811678 0)
(-0.05288481847 -0.2195802404 -1.890157359e-22)
(-0.004749187892 -0.08377277269 3.360560985e-22)
(-0.0003641989667 0.05902317034 1.551006373e-23)
(-0.01049574202 0.1379881314 -8.76417275e-22)
(-0.02441390028 0.1856803842 -1.157056735e-21)
(-0.04026725104 0.2101384461 -8.628966135e-22)
(-0.05630730434 0.2182348629 0)
(-0.07214857524 0.2146190025 3.513798174e-23)
(-0.08779222755 0.2018791769 -7.294851822e-23)
(-0.1034562921 0.1810005492 5.86787291e-23)
(-0.119398402 0.1518997195 3.021360041e-22)
(-0.1357931707 0.113915059 -1.128193611e-23)
(-0.152608249 0.06621425729 0)
(-0.1694521547 0.008177215682 -3.603923445e-22)
(-0.1852760762 -0.06015986144 7.515656921e-22)
(-0.1980448664 -0.1372746833 8.831691273e-22)
(-0.2043546383 -0.2189261691 -5.296615852e-22)
(-0.1990977696 -0.29597127 5.162677663e-22)
(-0.1760605376 -0.3514072364 1.078225124e-23)
(-0.1300890644 -0.3584150563 -1.09554004e-23)
(-0.06688803256 -0.2843276332 -8.215591468e-23)
(-0.007083319752 -0.1169964339 0)
(-0.0009095781511 0.06540040967 -1.91148277e-23)
(-0.01167592074 0.1502816252 -1.326963082e-21)
(-0.02388882771 0.2000659332 1.094235266e-21)
(-0.03601341436 0.2244216709 6.734918654e-22)
(-0.04657310031 0.2316587993 6.014622197e-22)
(-0.05577040034 0.227239348 6.643947043e-22)
(-0.06411247498 0.2141774714 -4.458670834e-23)
(-0.07227563582 0.1936494283 -3.461332535e-22)
(-0.08096975045 0.1656028284 2.152159568e-22)
(-0.09087194535 0.1292707381 0)
(-0.1025547681 0.08353083222 0)
(-0.1163622386 0.02720011835 2.655393692e-22)
(-0.1321589781 -0.04062004669 8.194326847e-23)
(-0.1489252522 -0.120012816 -2.821618166e-22)
(-0.1641284458 -0.2089300532 -5.411263884e-23)
(-0.1727877758 -0.3006992339 1.30195105e-22)
(-0.1670311399 -0.3793328921 -3.400491303e-22)
(-0.1365292486 -0.4136451782 -1.593977951e-23)
(-0.08018250246 -0.3538326037 8.204363772e-23)
(-0.0105076229 -0.1594130488 -6.032187765e-22)
(-0.00226049898 0.07348883117 0)
(-0.01580356073 0.1626521651 2.145870768e-21)
(-0.02665043441 0.2117904556 0)
(-0.03422340901 0.2333947061 -1.351805631e-21)
(-0.03759400187 0.2377766617 6.184042216e-23)
(-0.03799687285 0.2312553341 -6.193085284e-22)
(-0.03668268203 0.2171898874 -4.756277917e-22)
(-0.03489038832 0.1968934413 8.301244128e-22)
(-0.03378840529 0.1703342361 -1.885695488e-22)
(-0.03449879115 0.1367221106 0)
(-0.03811575391 0.09479674349 0)
(-0.04564995051 0.04304287604 2.41061881e-23)
(-0.05790806811 -0.02013780046 -6.007191347e-22)
(-0.07514600879 -0.09620648984 -4.309561514e-22)
(-0.09645177066 -0.1855556051 4.637856469e-22)
(-0.1183462789 -0.285356765 -6.488721972e-22)
(-0.133271551 -0.3838386406 9.119936069e-23)
(-0.1265351064 -0.4504358577 2.937471276e-23)
(-0.08899154349 -0.4198536241 5.660457548e-22)
(-0.01526917948 -0.2111719656 6.020820455e-22)
(-0.005180899978 0.0859804575 0)
(-0.02525551124 0.1766291112 1.46557958e-22)
(-0.03483408892 0.2205961424 -4.917136351e-23)
(-0.03640015287 0.2354859189 7.642917271e-22)
(-0.03018484939 0.2343406589 -7.00536592e-22)
(-0.01916581731 0.2241603739 4.746473581e-23)
(-0.005615175899 0.2083525736 -1.018607968e-22)
(0.00856958048 0.1881241025 -3.389884338e-22)
(0.02179883361 0.1633911255 2.062820434e-22)
(0.0326277868 0.1333242761 0)
(0.03958455855 0.09664086825 0)
(0.04117010704 0.05174057316 -2.902664599e-22)
(0.03578481443 -0.003255388094 0)
(0.02198182511 -0.07058359862 -5.512181194e-22)
(-0.001264865287 -0.1525735416 -1.492373998e-23)
(-0.03310471503 -0.2505949764 2.559732756e-23)
(-0.06909237119 -0.3599341434 2.203129218e-22)
(-0.09227827858 -0.4575424446 4.788173781e-24)
(-0.08718090271 -0.4698129324 -5.789426888e-22)
(-0.02103127186 -0.2698972237 0)
(-0.01111631571 0.1085974971 0)
(-0.04248902189 0.1947151638 -8.848466647e-22)
(-0.04795529714 0.225819543 -5.41103252e-22)
(-0.03919537236 0.2282135447 4.543808969e-22)
(-0.01877832079 0.2182328019 -1.709982479e-24)
(0.007664291688 0.2028220249 -4.561040983e-23)
(0.03667990871 0.1847619689 5.696672959e-22)
(0.06582995893 0.1647118168 -2.76688698e-23)
(0.0932712816 0.1423128168 -2.069779324e-22)
(0.1173891341 0.1166274963 3.142210063e-23)
(0.1365461435 0.08641144412 -3.425913687e-23)
(0.1489669034 0.05017669733 -3.690590615e-23)
(0.1525275572 0.006159174743 3.205630348e-22)
(0.1449366848 -0.04796126268 6.119599621e-22)
(0.1235159631 -0.1153052843 -5.10116489e-22)
(0.08633532108 -0.2004195596 -1.61605216e-22)
(0.03199088124 -0.3067806548 1.531314197e-22)
(-0.02362123994 -0.4239837101 7.293661344e-23)
(-0.06492413395 -0.4871612739 1.913292906e-21)
(-0.02509971751 -0.3291544705 2.954992926e-21)
(-0.02004680459 0.146072741 -4.390203622e-23)
(-0.06416406396 0.2112955848 4.417376345e-23)
(-0.0507023104 0.2177300439 1.000187388e-21)
(-0.01934098197 0.2014679924 -8.270493626e-24)
(0.02414463671 0.1809076109 0)
(0.0715412038 0.1606933282 4.363714079e-23)
(0.1190703205 0.1416495442 -2.273848012e-22)
(0.1644767111 0.1233181792 -9.027941729e-23)
(0.2062250931 0.1048117288 3.680728851e-23)
(0.24296428 0.08507140255 -1.701653327e-23)
(0.273220737 0.06296148031 3.429966991e-23)
(0.2952535922 0.03726294296 -6.592673989e-23)
(0.3066970897 0.006535073388 -9.303899207e-23)
(0.3049738175 -0.0308776955 1.517041974e-22)
(0.2863936136 -0.07786290558 0)
(0.2470567993 -0.1399300341 1.505604415e-22)
(0.1810922161 -0.2266299739 2.560014682e-22)
(0.09604449679 -0.344389493 0)
(-0.006697618802 -0.4552210199 -3.675636956e-21)
(-0.0192240825 -0.3777537571 -2.892622351e-21)
(-0.02591951285 0.2276828804 -9.514202142e-22)
(-0.03998324604 0.2238216529 -1.388975342e-22)
(0.03656136832 0.1810585348 -2.335578905e-22)
(0.1090503025 0.1451059071 -1.193740178e-22)
(0.1817191142 0.1172445467 -4.295819012e-23)
(0.2490090647 0.09627907347 9.783158578e-23)
(0.3100336586 0.0800251019 -1.408589127e-22)
(0.3646209195 0.06656815207 1.297173059e-22)
(0.4126252345 0.05449178877 -8.620107496e-23)
(0.453625015 0.04270895019 1.132193998e-25)
(0.4867878584 0.03032298598 1.527739929e-23)
(0.5107451241 0.01652902088 7.997196115e-23)
(0.5236597354 0.000536516687 -1.811121752e-22)
(0.5231797935 -0.01863373032 -1.617144138e-22)
(0.5052323362 -0.04286478784 -4.262939501e-23)
(0.465871504 -0.07633231077 0)
(0.3952696467 -0.1286089381 -1.84648145e-22)
(0.2916071024 -0.2208468097 8.148767495e-22)
(0.1197455091 -0.3525016901 1.631602251e-21)
(0.02670547221 -0.3775497976 2.172656243e-21)
(0.2142894472 0.1347447206 9.864986761e-22)
(0.2776311195 0.09870503536 0)
(0.4316592304 0.05810414845 -2.594318566e-22)
(0.5304749358 0.03846264951 -1.741664018e-22)
(0.601696575 0.02623419095 0)
(0.657119894 0.01831923452 -6.009077289e-23)
(0.7015213566 0.01313600833 6.377986457e-23)
(0.737604245 0.009542126348 -1.800152611e-23)
(0.7669368359 0.006804463769 2.88596841e-23)
(0.7902106627 0.004464744191 2.315029348e-23)
(0.8074554957 0.002221320227 0)
(0.8182621312 -0.0001500745732 -2.873029303e-23)
(0.8216499684 -0.002723847895 0)
(0.8162394178 -0.005712668358 2.738143731e-23)
(0.799133314 -0.009611382655 1.42168472e-23)
(0.7679986344 -0.01500255101 -5.799411009e-23)
(0.7106555756 -0.02502519962 -2.535663296e-22)
(0.6235183981 -0.04204285417 -6.918104939e-22)
(0.423009102 -0.09182968091 0)
(0.2705674689 -0.1524021841 -2.1194841e-21)
)


// ************************************************************************* //
