/*--------------------------------*- C++ -*----------------------------------*\
  =========                 |
  \\      /  F ield         | OpenFOAM: The Open Source CFD Toolbox
   \\    /   O peration     | Website:  https://openfoam.org
    \\  /    A nd           | Version:  13
     \\/     M anipulation  |
\*---------------------------------------------------------------------------*/
FoamFile
{
    format      ascii;
    class       vectorField;
    location    "42.2";
    object      U_all;
}
// * * * * * * * * * * * * * * * * * * * * * * * * * * * * * * * * * * * * * //


400
(
(1.100563407e-05 -3.783215543e-05 0)
(-0.0006660955677 0.0004130430098 -1.551261135e-23)
(-0.002185374235 0.0009203940767 0)
(-0.004047831528 0.001312780345 0)
(-0.005971867163 0.001535064118 6.845665554e-25)
(-0.007762784087 0.001569846673 4.151045355e-24)
(-0.009284548164 0.001423564597 -7.373491676e-24)
(-0.01043594445 0.001119726483 7.530655118e-24)
(-0.01113681516 0.0006960861765 -2.095422943e-25)
(-0.01132710949 0.0002030794913 -3.994692127e-24)
(-0.01097176951 -0.0003002341098 5.803653209e-24)
(-0.01007232586 -0.0007475183962 -5.929570488e-23)
(-0.008679880104 -0.001075564477 -6.552692278e-23)
(-0.00690285459 -0.001233044759 -7.784289838e-23)
(-0.004910740131 -0.001192637522 4.5735823e-24)
(-0.002927233928 -0.0009619189013 -4.137933753e-24)
(-0.001205301581 -0.0005912104418 -1.998758766e-22)
(-1.907171372e-05 -0.0001698822681 0)
(0.0005181507401 0.0001720861713 1.509676645e-25)
(0.0002227498008 0.0003059797971 -2.554010256e-24)
(-0.0002633626555 0.0008289691628 1.38300838e-25)
(-0.002703304801 0.003383842072 1.561057543e-23)
(-0.006907277302 0.005604502673 1.555289376e-25)
(-0.01195232049 0.007008208302 -8.495431557e-25)
(-0.01713504376 0.007553774649 1.162143433e-24)
(-0.0219753525 0.007294197079 1.306914109e-23)
(-0.0261107596 0.006321892899 1.388312806e-24)
(-0.0292656484 0.004754194806 -7.282392408e-24)
(-0.03122673317 0.002737155637 1.01526412e-23)
(-0.03184201274 0.0004524093064 4.510042842e-24)
(-0.03102761528 -0.001884143601 -6.31892927e-24)
(-0.02879316495 -0.004023030791 2.961618066e-24)
(-0.02527138147 -0.005708356493 3.89552422e-23)
(-0.02073194762 -0.00670741031 -1.954763953e-24)
(-0.01558962718 -0.006854138964 3.754469888e-24)
(-0.0103851369 -0.006097461814 -9.740928249e-23)
(-0.005730276626 -0.004546183904 9.637684019e-23)
(-0.002233371827 -0.002507416952 -3.961333548e-25)
(-0.0001817790021 -0.0005023704461 4.061239103e-25)
(8.343331151e-05 0.0006099284819 0)
(-0.0004188228615 0.002935079265 -2.910444514e-25)
(-0.004647873425 0.008804014088 1.702112979e-23)
(-0.01137195982 0.01324042451 -8.283493926e-24)
(-0.01932729269 0.01579204365 -2.075382221e-25)
(-0.02747411959 0.01653000295 2.038846347e-25)
(-0.03511778945 0.01564441698 6.829016978e-27)
(-0.04171344704 0.01335997352 -1.220795952e-24)
(-0.04683571499 0.009919767848 -4.551591938e-25)
(-0.05014988811 0.005602431758 -1.063083856e-23)
(-0.05141231994 0.0007444213906 0)
(-0.05047793462 -0.004241778685 0)
(-0.04733706419 -0.008887185993 2.67102776e-23)
(-0.04215927859 -0.01268176975 2.81303158e-23)
(-0.0353143721 -0.01513605259 -1.646164176e-24)
(-0.02738996054 -0.0158618955 4.845857449e-23)
(-0.01917005901 -0.01467333989 9.419231993e-23)
(-0.01156091068 -0.01169360067 3.975631258e-23)
(-0.005465417529 -0.00745073945 4.141895094e-25)
(-0.001451104159 -0.002936039984 1.073706646e-25)
(-9.072958417e-05 0.000225880734 0)
(-0.0005024633006 0.006045351102 -4.248931212e-23)
(-0.006402739382 0.01637075505 -1.692337345e-23)
(-0.01553502267 0.02355933425 8.210343247e-24)
(-0.02627912007 0.02744162589 0)
(-0.03728746922 0.02832102371 0)
(-0.04769037746 0.02658772839 0)
(-0.05679663194 0.02263120542 -4.468465616e-26)
(-0.06405383997 0.01683609285 -2.136516197e-24)
(-0.06901081364 0.009622182219 0)
(-0.07130827809 0.001491048399 1.635450978e-24)
(-0.07070853602 -0.006936504857 2.802770365e-25)
(-0.06713039565 -0.01493018901 -2.810618057e-25)
(-0.06069905659 -0.02166728239 0)
(-0.05180750385 -0.02631605882 4.133292607e-23)
(-0.04114991406 -0.02816071001 -4.681570098e-23)
(-0.0297197006 -0.02677372291 -2.761916001e-23)
(-0.01873716814 -0.02221530465 -3.960777013e-23)
(-0.009488032546 -0.01521922017 7.795825459e-25)
(-0.002976883965 -0.007298191877 9.790328057e-23)
(-0.0002318817091 -0.0008661649192 0)
(-0.0005316140319 0.01009501751 4.2695927e-23)
(-0.007983593861 0.02595219769 4.785186452e-25)
(-0.01939687435 0.03642882857 -4.675894358e-25)
(-0.03282382351 0.04185520601 0)
(-0.04664688984 0.04289485157 7.782845523e-25)
(-0.05985229787 0.04020074129 -7.67493354e-25)
(-0.07163291569 0.03434741909 3.672251657e-23)
(-0.0813275139 0.02585664334 1.848157714e-23)
(-0.08836601124 0.01527298474 6.23873869e-24)
(-0.09225469554 0.003246146841 -1.6373563e-24)
(-0.09260379835 -0.009407833664 0)
(-0.08917555577 -0.02167478194 4.370659052e-25)
(-0.08195979241 -0.03236745256 1.009029278e-23)
(-0.07126885268 -0.04021250375 -4.34932589e-23)
(-0.05782018521 -0.04402046615 1.932903247e-24)
(-0.04278582711 -0.04294829647 4.217246525e-23)
(-0.02775450289 -0.03683347149 -3.841709899e-25)
(-0.01455062498 -0.02652721048 0)
(-0.004859464508 -0.01408454387 5.436551698e-23)
(-0.0003641493714 -0.00284695176 -2.56507458e-22)
(-0.0005272214541 0.01499927683 9.841461938e-23)
(-0.009377926075 0.03739022509 -4.907727132e-25)
(-0.02288182879 0.05170223257 0)
(-0.03883043565 0.05894183241 0)
(-0.05538656763 0.06025574587 -8.732070741e-23)
(-0.07142876657 0.05661900985 -8.499042745e-23)
(-0.08606654172 0.04880168782 -4.067502893e-23)
(-0.09855086074 0.03743980649 -1.504347069e-23)
(-0.1081945325 0.02315984156 -5.368791924e-24)
(-0.1143444748 0.006709680818 -8.174944711e-24)
(-0.1164046231 -0.01093292093 6.601057943e-24)
(-0.1138937419 -0.02848945085 8.826553044e-24)
(-0.1065486985 -0.04437046382 -1.892313361e-23)
(-0.09446803925 -0.0567533396 4.607009478e-24)
(-0.07826856641 -0.06378298923 0)
(-0.05922895162 -0.06393495716 -1.572881582e-23)
(-0.03933981742 -0.05653816546 -2.428511157e-26)
(-0.02114188795 -0.04235809276 0)
(-0.007318703172 -0.02398229429 -1.520644342e-22)
(-0.0005216167082 -0.005925544696 6.056262937e-22)
(-0.0004990814652 0.02064574411 -9.774414407e-23)
(-0.010529509 0.05045438123 2.831977437e-22)
(-0.02582957514 0.06912511852 1.526858673e-22)
(-0.04402138449 0.07849258118 3.619269823e-24)
(-0.06310739297 0.0802947654 -7.319361131e-23)
(-0.08190405106 0.07588042912 9.043496078e-23)
(-0.09947763595 0.06621690623 -3.590201922e-24)
(-0.1150227366 0.05201695022 -1.729167042e-24)
(-0.1277519177 0.03392358542 2.524156208e-24)
(-0.1368472613 0.01270233334 7.382581164e-24)
(-0.1414710546 -0.01058782143 -6.500809669e-24)
(-0.1408248206 -0.03446024213 -9.787961328e-24)
(-0.1342745982 -0.05692771627 -3.26173714e-23)
(-0.1215450237 -0.07553316228 -3.66139005e-23)
(-0.102967264 -0.08754260656 5.645753893e-25)
(-0.07976369684 -0.09039209811 0)
(-0.05426682304 -0.08244513893 0)
(-0.02987160836 -0.06397736963 -2.90605807e-24)
(-0.01066285101 -0.03798794771 2.970507153e-24)
(-0.0007350934846 -0.01050089531 1.027871688e-22)
(-0.0004479156593 0.02687251119 0)
(-0.01134923095 0.06480757403 2.001979902e-22)
(-0.02801599616 0.08829617194 8.962048938e-23)
(-0.04799857423 0.1001234952 0)
(-0.06920602162 0.1027076563 1.569881105e-22)
(-0.09044373325 0.09781578683 0)
(-0.1107831682 0.08661103024 -1.428387506e-22)
(-0.1294093756 0.06983950308 6.515554435e-24)
(-0.1454771631 0.04808232177 0)
(-0.1580351823 0.02201755647 0)
(-0.1660133481 -0.007334437895 -1.374410042e-24)
(-0.168267159 -0.03838839473 -9.316737467e-25)
(-0.1637064725 -0.06883975595 1.491976285e-22)
(-0.1515208777 -0.09558275552 -4.704639326e-23)
(-0.1315134556 -0.1148298647 -2.560957269e-24)
(-0.1045596067 -0.1225703408 1.534719175e-24)
(-0.07309349785 -0.1155517968 -1.558928267e-24)
(-0.04135021401 -0.09283115611 0)
(-0.01525230224 -0.05740767686 3.203809883e-24)
(-0.001044308842 -0.01714714531 -1.012913583e-21)
(-0.0003744663798 0.03346304602 0)
(-0.01175006006 0.07998918723 -1.128288168e-22)
(-0.02920707827 0.1086390937 -6.191147836e-22)
(-0.0503174503 0.1232233986 -3.755306306e-22)
(-0.07296317577 0.1269097033 0)
(-0.09598960359 0.121925564 4.119455296e-22)
(-0.1185273492 0.1096348641 1.260924233e-22)
(-0.1398146419 0.09078245806 -5.581834893e-24)
(-0.1590221548 0.06581393086 5.55420781e-24)
(-0.1751461011 0.03520881074 0)
(-0.1869560006 -0.00019674626 2.912131689e-23)
(-0.193017268 -0.03889754129 4.695838942e-24)
(-0.1917809947 -0.0784388825 -1.07680769e-22)
(-0.1817874463 -0.115186535 8.004194591e-23)
(-0.1620570451 -0.1442599444 -2.41974454e-22)
(-0.1327062007 -0.1598548617 0)
(-0.09577888157 -0.1563112881 0)
(-0.05601633028 -0.1302981083 0)
(-0.02147859109 -0.08381135128 0)
(-0.001500384455 -0.02665516326 5.572113555e-22)
(-0.0002873902516 0.04016077771 0)
(-0.01169359623 0.09543611591 -3.493014645e-22)
(-0.02924438233 0.1294073629 8.932798224e-22)
(-0.05060947281 0.1469299165 3.617178647e-22)
(-0.07370082735 0.1519748669 0)
(-0.09745151246 0.1472757958 -3.862553211e-22)
(-0.1211069842 0.1344191944 -3.174429247e-23)
(-0.1440324782 0.114139331 3.333104257e-22)
(-0.1655143228 0.08670006494 1.769474669e-22)
(-0.1846248518 0.05229123383 -4.060152533e-23)
(-0.2001325816 0.01141716143 1.656821455e-23)
(-0.2104622457 -0.034714241 -8.265250705e-24)
(-0.2137208548 -0.08376563474 3.371859053e-22)
(-0.2078215517 -0.1318756331 0)
(-0.190823855 -0.173275612 2.420913566e-22)
(-0.1616335745 -0.2002593382 5.774772402e-24)
(-0.1211662693 -0.2040121701 -5.860891341e-24)
(-0.07384989798 -0.1772119952 1.548446274e-22)
(-0.02971786818 -0.1188642325 -5.435455017e-24)
(-0.002179545071 -0.0400539874 0)
(-0.0002117198891 0.04671639942 0)
(-0.01125001042 0.1105498129 0)
(-0.02815624409 0.1497355009 -5.022756508e-22)
(-0.04874479316 0.1701517608 -1.88099786e-23)
(-0.0710008673 0.176625715 2.038378189e-23)
(-0.09399451604 0.1724526513 -2.014310692e-23)
(-0.1171434304 0.1594870986 -2.316882924e-23)
(-0.1400179498 0.1384805074 -3.029822894e-22)
(-0.1621328877 0.1095160701 6.698611417e-23)
(-0.1827959023 0.07245186786 4.513178429e-23)
(-0.2009835547 0.02734928681 -4.577721673e-23)
(-0.215227026 -0.02508697863 0)
(-0.2235562215 -0.08298351386 -7.839687393e-23)
(-0.2234632203 -0.1427257328 0)
(-0.212067944 -0.1981820874 -3.739562491e-22)
(-0.1867434555 -0.2400773689 5.244954009e-22)
(-0.1464438308 -0.2560773408 0)
(-0.09394567745 -0.2331209502 -1.493992419e-22)
(-0.04022000993 -0.1639613658 1.937548812e-22)
(-0.003201100236 -0.05861063132 -3.411528392e-22)
(-0.0002015404627 0.05297585015 0)
(-0.01067261759 0.1248172385 9.182869805e-22)
(-0.02628446583 0.1687424583 -2.440685632e-23)
(-0.04501107819 0.1916455146 9.193340861e-22)
(-0.06494597618 0.1992921062 -2.512086749e-23)
(-0.08536628694 0.1956104326 2.838843998e-23)
(-0.105930566 0.1827886849 -2.812930059e-23)
(-0.1264924189 0.1616583506 -1.6609178e-23)
(-0.1468996841 0.1321762289 -5.260228741e-22)
(-0.1668458149 0.09389646454 -8.906628011e-24)
(-0.1857303017 0.04640576096 9.660196532e-24)
(-0.2024781681 -0.01023784929 3.313077909e-22)
(-0.2154154612 -0.07499820471 -5.820740692e-22)
(-0.2220209717 -0.1450311847 0)
(-0.2188032107 -0.2146760622 8.887324307e-22)
(-0.2016257529 -0.2740016424 -4.940886651e-22)
(-0.1668639196 -0.3075811956 -1.572223046e-23)
(-0.1140220095 -0.2953811911 0)
(-0.0528848202 -0.2195802577 -1.890182538e-22)
(-0.004749188139 -0.0837727794 3.360586194e-22)
(-0.0003641980126 0.05902317718 1.551010292e-23)
(-0.01049573799 0.1379881495 -8.764197386e-22)
(-0.02441389392 0.1856804097 -1.157059305e-21)
(-0.04026724398 0.210138475 -8.628989678e-22)
(-0.05630729704 0.2182348916 0)
(-0.07214856711 0.214619028 3.513805703e-23)
(-0.08779221764 0.2018791969 -7.294867025e-23)
(-0.1034562799 0.181000562 5.867884648e-23)
(-0.1193983875 0.1518997244 3.021366682e-22)
(-0.1357931546 0.1139150565 -1.128195726e-23)
(-0.1526082319 0.06621424863 0)
(-0.1694521375 0.008177202427 -3.603929999e-22)
(-0.1852760599 -0.06015987781 7.515668841e-22)
(-0.1980448521 -0.1372747017 8.831704633e-22)
(-0.2043546269 -0.218926189 -5.296627728e-22)
(-0.1990977619 -0.2959712912 5.162689901e-22)
(-0.1760605335 -0.3514072587 1.078232687e-23)
(-0.1300890634 -0.3584150781 -1.095547723e-23)
(-0.06688803314 -0.2843276509 -8.215343573e-23)
(-0.007083319934 -0.1169964416 0)
(-0.0009095772766 0.06540041526 -1.911486776e-23)
(-0.01167591591 0.1502816405 -1.32696554e-21)
(-0.0238888191 0.2000659549 1.094237682e-21)
(-0.0360134035 0.2244216955 6.734931347e-22)
(-0.04657308776 0.2316588238 6.014633088e-22)
(-0.05577038605 0.22723937 6.643958282e-22)
(-0.06411245864 0.2141774889 -4.458677998e-23)
(-0.07227561729 0.1936494398 -3.461337498e-22)
(-0.08096972988 0.1656028332 2.152162561e-22)
(-0.09087192318 0.1292707366 0)
(-0.102554745 0.08353082535 0)
(-0.1163622153 0.02720010757 2.655396981e-22)
(-0.1321589556 -0.0406200599 8.194326757e-23)
(-0.1489252316 -0.1200128305 -2.821623588e-22)
(-0.1641284282 -0.2089300685 -5.411271829e-23)
(-0.1727877622 -0.3006992501 1.301951982e-22)
(-0.1670311309 -0.3793329095 -3.400504417e-22)
(-0.1365292442 -0.4136451963 -1.59385476e-23)
(-0.08018250154 -0.3538326198 8.204116215e-23)
(-0.01050762296 -0.1594130567 -6.03216341e-22)
(-0.002260498235 0.07348883499 0)
(-0.0158035557 0.1626521767 2.145874503e-21)
(-0.02665042479 0.2117904724 0)
(-0.0342233957 0.2333947253 -1.351808086e-21)
(-0.03759398522 0.2377766811 6.184050415e-23)
(-0.0379968533 0.2312553516 -6.19309583e-22)
(-0.03668266017 0.2171899014 -4.756284965e-22)
(-0.03489036469 0.1968934505 8.30125573e-22)
(-0.03378838037 0.1703342402 -1.885698129e-22)
(-0.03449876545 0.1367221096 0)
(-0.03811572796 0.09479673809 0)
(-0.04564992495 0.04304286747 2.410617207e-23)
(-0.05790804364 -0.0201378109 -6.007198643e-22)
(-0.07514598619 -0.09620650092 -4.309567087e-22)
(-0.09645175076 -0.1855556162 4.637862655e-22)
(-0.1183462626 -0.2853567762 -6.488735147e-22)
(-0.1332715391 -0.3838386526 9.119944961e-23)
(-0.1265350994 -0.4504358706 2.937340551e-23)
(-0.08899154113 -0.4198536369 5.660446079e-22)
(-0.01526917937 -0.2111719728 6.020796145e-22)
(-0.005180899365 0.08598045976 0)
(-0.02525550668 0.176629119 1.465579542e-22)
(-0.03483407967 0.2205961543 -4.917144344e-23)
(-0.03640013884 0.235485933 7.642930643e-22)
(-0.03018483062 0.2343406734 -7.005378351e-22)
(-0.01916579458 0.2241603869 4.746481172e-23)
(-0.00561515071 0.2083525839 -1.018609891e-22)
(0.008569607011 0.1881241091 -3.389888863e-22)
(0.02179886067 0.163391128 2.062822952e-22)
(0.03262781348 0.1333242747 0)
(0.03958458438 0.09664086344 0)
(0.04117013154 0.05174056594 -2.902667735e-22)
(0.03578483736 -0.003255396516 0)
(0.02198184609 -0.07058360734 -5.512187203e-22)
(-0.001264846721 -0.1525735498 -1.49237596e-23)
(-0.03310469943 -0.2505949839 2.559740291e-23)
(-0.06909235874 -0.359934151 2.203141426e-22)
(-0.09227827048 -0.4575424521 4.788097575e-24)
(-0.0871808995 -0.4698129409 -5.789414659e-22)
(-0.02103127156 -0.2698972293 0)
(-0.01111631532 0.1085974986 0)
(-0.04248901867 0.1947151683 -8.848478207e-22)
(-0.04795528987 0.2258195508 -5.411039258e-22)
(-0.03919535996 0.2282135545 4.54381622e-22)
(-0.01877830309 0.2182328122 -1.709980705e-24)
(0.007664313763 0.2028220341 -4.561049488e-23)
(0.03667993354 0.1847619758 5.696682279e-22)
(0.06582998496 0.1647118208 -2.766890678e-23)
(0.09327130761 0.1423128176 -2.06978183e-22)
(0.1173891591 0.116627494 3.142213703e-23)
(0.1365461671 0.08641143929 -3.42591732e-23)
(0.1489669252 0.05017669076 -3.690594272e-23)
(0.1525275767 0.0061591674 3.205633642e-22)
(0.1449367019 -0.04796126985 6.119606368e-22)
(0.123515978 -0.1153052905 -5.101171626e-22)
(0.08633533337 -0.2004195646 -1.616057979e-22)
(0.03199089202 -0.3067806588 1.531308397e-22)
(-0.02362123225 -0.4239837142 7.293653945e-23)
(-0.06492413091 -0.4871612786 1.913291838e-21)
(-0.02509971713 -0.3291544741 2.954991722e-21)
(-0.02004680457 0.1460727424 -4.390207519e-23)
(-0.06416406293 0.2112955873 4.417380269e-23)
(-0.05070230686 0.2177300485 1.0001885e-21)
(-0.01934097418 0.2014679985 -8.270559122e-24)
(0.02414464925 0.1809076175 0)
(0.07154122053 0.1606933339 4.36372222e-23)
(0.1190703402 0.1416495481 -2.27385202e-22)
(0.1644767323 0.1233181808 -9.027957279e-23)
(0.2062251145 0.1048117282 3.680734643e-23)
(0.2429643007 0.08507139986 -1.701655111e-23)
(0.2732207565 0.062961476 3.429970628e-23)
(0.2952536097 0.03726293764 -6.592681425e-23)
(0.3066971051 0.006535067723 -9.303906553e-23)
(0.3049738305 -0.03087770077 1.517044159e-22)
(0.2863936243 -0.07786290989 0)
(0.2470568079 -0.139930037 1.50561095e-22)
(0.1810922231 -0.2266299753 2.560014017e-22)
(0.096044502 -0.3443894947 0)
(-0.006697616183 -0.4552210218 -3.675635195e-21)
(-0.0192240821 -0.3777537587 -2.892621187e-21)
(-0.02591951318 0.2276828818 -9.514204604e-22)
(-0.03998324745 0.2238216535 -1.388976479e-22)
(0.03656136732 0.1810585368 -2.335581657e-22)
(0.109050304 0.1451059096 -1.193742056e-22)
(0.1817191191 0.1172445494 -4.295825916e-23)
(0.2490090732 0.09627907567 9.783181227e-23)
(0.3100336702 0.08002510317 -1.408592225e-22)
(0.364620933 0.06656815221 1.297175391e-22)
(0.412625249 0.05449178778 -8.620121079e-23)
(0.4536250296 0.04270894824 1.132190764e-25)
(0.4867878722 0.03032298333 1.527741833e-23)
(0.5107451365 0.01652901786 7.997205485e-23)
(0.5236597458 0.0005365137412 -1.811123961e-22)
(0.5231798016 -0.01863373299 -1.617146312e-22)
(0.5052323422 -0.04286478992 -4.262954029e-23)
(0.4658715082 -0.07633231208 0)
(0.3952696497 -0.1286089385 -1.846477862e-22)
(0.2916071046 -0.2208468099 8.148763907e-22)
(0.1197455104 -0.3525016903 1.63160167e-21)
(0.02670547254 -0.3775497979 2.172655957e-21)
(0.2142894463 0.1347447213 9.864989578e-22)
(0.2776311168 0.09870503542 0)
(0.4316592271 0.05810414868 -2.59432084e-22)
(0.5304749335 0.03846264967 -1.741666525e-22)
(0.6016965747 0.02623419108 0)
(0.657119896 0.0183192345 -6.009091914e-23)
(0.7015213607 0.01313600809 6.378001652e-23)
(0.7376042505 0.009542125904 -1.800156556e-23)
(0.7669368421 0.006804463158 2.885974256e-23)
(0.790210669 0.004464743478 2.315033255e-23)
(0.8074555015 0.002221319484 0)
(0.818262136 -0.0001500752881 -2.873033064e-23)
(0.821649972 -0.002723848534 0)
(0.8162394201 -0.00571266884 2.738150916e-23)
(0.7991333151 -0.009611382955 1.421691727e-23)
(0.7679986347 -0.01500255113 -5.799404007e-23)
(0.7106555755 -0.02502519958 -2.535661202e-22)
(0.623518398 -0.0420428541 -6.918102136e-22)
(0.423009102 -0.09182968082 0)
(0.2705674689 -0.1524021841 -2.11948382e-21)
)


// ************************************************************************* //
