/*--------------------------------*- C++ -*----------------------------------*\
  =========                 |
  \\      /  F ield         | OpenFOAM: The Open Source CFD Toolbox
   \\    /   O peration     | Website:  https://openfoam.org
    \\  /    A nd           | Version:  13
     \\/     M anipulation  |
\*---------------------------------------------------------------------------*/
FoamFile
{
    format      ascii;
    class       scalarField;
    location    "18.29";
    object      p_all;
}
// * * * * * * * * * * * * * * * * * * * * * * * * * * * * * * * * * * * * * //


400
(
-1.24396555e-06
-0.0005485396318
-0.0008902311936
-0.001017335895
-0.000938109436
-0.0006849410269
-0.0002954075341
0.0001945067921
0.0007483009046
0.001325526242
0.001880576342
0.002360645936
0.002710382872
0.00287672852
0.002818160621
0.002516653628
0.001992586282
0.001303039443
0.0006447479309
4.927896776e-05
0.0005856826436
4.956329658e-06
-0.0003583201586
-0.0005002033776
-0.0004690965164
-0.0002915930517
2.909873687e-06
0.0003851151746
0.0008236197336
0.001281186082
0.001718005803
0.002082964795
0.00232572711
0.002398957471
0.002268784835
0.001926397124
0.00139846147
0.0007499435709
0.0001529060961
-0.0005094052489
0.0009490707131
0.0003054090062
-9.524547221e-05
-0.0002410596175
-0.0002344015709
-0.0001053493061
0.0001220414183
0.0004264615678
0.0007841729795
0.001163253519
0.001531651564
0.001835554448
0.002024999539
0.002051288051
0.001879283952
0.001499132996
0.0009347441302
0.0002425939597
-0.0004552746567
-0.001291684146
0.0009722674416
0.0002549824303
-0.0001945523356
-0.0003462506808
-0.0003548667651
-0.0002571886912
-7.387930055e-05
0.0001824314918
0.0004981597208
0.000852986818
0.001205969303
0.001514007741
0.001716413222
0.001752701657
0.001574020645
0.001156964112
0.0005133043087
-0.0003102861479
-0.001224866855
-0.002374755007
0.0004767415596
-0.0002878251572
-0.0007659600721
-0.0009169897116
-0.0009372285404
-0.0008679067328
-0.0007240490796
-0.000506177668
-0.00021407144
0.0001429678676
0.0005345413698
0.0009123919162
0.001205364293
0.00133263266
0.001217830078
0.0008077772081
8.841191761e-05
-0.0009082405405
-0.002117302129
-0.0036446789
-0.0006891669765
-0.001469085286
-0.001957358276
-0.002107652082
-0.002149454234
-0.002124935697
-0.002039289631
-0.001875422309
-0.001612188694
-0.00123924061
-0.0007721288501
-0.0002553732246
0.0002284701398
0.0005696628902
0.0006463924818
0.0003506095024
-0.0003832317546
-0.001553348191
-0.003123062055
-0.005128929843
-0.002662804393
-0.003423796884
-0.00391489878
-0.004079387938
-0.004175514458
-0.004243029948
-0.004272358823
-0.004221633331
-0.004038541819
-0.003679413639
-0.003129772343
-0.002415367639
-0.001622045804
-0.0008920961445
-0.0004136332207
-0.0003874863973
-0.0009767054326
-0.002248314568
-0.004219351637
-0.00681337415
-0.005553297175
-0.006267724345
-0.006765261574
-0.006978136101
-0.007189933099
-0.007435814157
-0.007687278372
-0.007870113462
-0.007888094849
-0.007645001475
-0.007070814473
-0.006142614679
-0.004927142943
-0.003588985293
-0.00239897089
-0.001700353482
-0.001829413035
-0.003000950465
-0.005353391063
-0.008645556687
-0.009430076612
-0.01007618898
-0.01059232436
-0.01090326727
-0.01131665713
-0.01186395404
-0.01249642943
-0.01310189871
-0.01352746586
-0.01360103492
-0.01315892746
-0.01209733759
-0.01040488992
-0.0082348242
-0.005936451803
-0.004043905067
-0.00317357724
-0.003826996703
-0.006409801658
-0.01047347384
-0.01430793402
-0.01486701365
-0.01541330197
-0.01587102084
-0.0165764126
-0.01756336648
-0.01876664375
-0.02003517628
-0.02115044928
-0.02184403467
-0.02182636172
-0.02084098094
-0.01874158076
-0.01559176816
-0.01176950884
-0.008014796092
-0.005340001715
-0.004741883918
-0.007163051301
-0.01195999746
-0.02014144201
-0.02059209571
-0.02116166587
-0.02178198494
-0.02283454551
-0.02436913044
-0.0263138453
-0.02848407032
-0.0305943214
-0.03226746092
-0.03305762682
-0.03250288803
-0.03024587318
-0.02614453239
-0.02049414715
-0.01417709464
-0.008668470333
-0.005706353742
-0.007200160041
-0.01244687832
-0.02683981271
-0.02714634861
-0.02768634124
-0.02840507215
-0.02976833078
-0.03186433087
-0.03462964455
-0.03785597458
-0.04119641663
-0.04416476998
-0.04614646562
-0.04643741168
-0.04442310916
-0.03962279535
-0.03208745977
-0.02266942665
-0.01324155771
-0.006464574223
-0.005789455021
-0.01074661768
-0.03431527553
-0.03439981183
-0.03477102406
-0.03538466737
-0.03686918462
-0.03938344096
-0.04288900927
-0.04716228411
-0.05180104821
-0.05621702594
-0.05963760089
-0.06114943063
-0.05974037148
-0.0546197666
-0.04540876634
-0.03267139656
-0.01842883972
-0.006225342889
-0.001656200355
-0.004857466474
-0.04258862885
-0.04225965415
-0.0421762328
-0.04227564454
-0.04349105618
-0.04609018381
-0.05006916476
-0.05518591485
-0.06097741919
-0.06675689849
-0.07160101079
-0.07437574978
-0.0737984587
-0.06864456556
-0.05804549379
-0.04203887485
-0.02242027986
-0.003240286113
0.007361339961
0.008353411109
-0.05198872532
-0.05074112362
-0.04965895007
-0.0485599282
-0.04890614916
-0.05109648529
-0.05514517704
-0.06076491511
-0.06740140061
-0.07425479708
-0.08024874494
-0.08404513147
-0.08410389649
-0.07881552153
-0.06682519978
-0.04750911131
-0.02211554244
0.005512003365
0.02472393943
0.03353371286
-0.06363550944
-0.06017079769
-0.05708069485
-0.05374854095
-0.05244876274
-0.05366069821
-0.05734117079
-0.06311184366
-0.07023311714
-0.0777709323
-0.08446429916
-0.0887613296
-0.08887944091
-0.08282605194
-0.06884235317
-0.04561593075
-0.01374914141
0.0244188594
0.05554098686
0.07735592664
-0.08016900894
-0.07105975523
-0.06410854903
-0.05715449075
-0.05342022964
-0.0532016551
-0.05624134455
-0.06189238347
-0.06923457365
-0.07709186581
-0.08398891057
-0.08813241545
-0.08746612182
-0.07964908552
-0.06247808097
-0.03405364101
0.005556679325
0.05859164374
0.1058180158
0.1480622241
-0.1104947842
-0.08584440021
-0.07159960041
-0.05896667827
-0.05190887891
-0.04987550731
-0.05209080399
-0.05749241567
-0.06483992304
-0.07268775267
-0.07932077236
-0.08269821577
-0.08051060471
-0.06988347803
-0.04823480704
-0.01272977393
0.03822589456
0.1071222484
0.1779687314
0.2564662485
-0.1684291018
-0.09990229161
-0.07500627519
-0.05479812749
-0.04461875269
-0.04158200992
-0.04370984138
-0.0493689076
-0.05700088166
-0.06495292482
-0.07134480231
-0.07396642126
-0.07012023056
-0.05701081166
-0.03103164844
0.01192141446
0.07558837525
0.1663922082
0.2761497649
0.437692574
-0.39842067
-0.1380944092
-0.07496962897
-0.0470903032
-0.03355110357
-0.03002884231
-0.03279636426
-0.03925430071
-0.04754424118
-0.05592290971
-0.06248444349
-0.06501637527
-0.06098628452
-0.04696606962
-0.0187586576
0.02992890452
0.1069458501
0.2334160462
0.4198686436
0.7800121411
)


// ************************************************************************* //
