/*--------------------------------*- C++ -*----------------------------------*\
  =========                 |
  \\      /  F ield         | OpenFOAM: The Open Source CFD Toolbox
   \\    /   O peration     | Website:  https://openfoam.org
    \\  /    A nd           | Version:  13
     \\/     M anipulation  |
\*---------------------------------------------------------------------------*/
FoamFile
{
    format      ascii;
    class       vectorField;
    location    "30.18";
    object      U_all;
}
// * * * * * * * * * * * * * * * * * * * * * * * * * * * * * * * * * * * * * //


400
(
(1.095875825e-05 -3.786348918e-05 0)
(-0.0006661440329 0.0004130356026 -1.548260658e-23)
(-0.002185381484 0.0009203892652 0)
(-0.004047821937 0.001312773618 0)
(-0.005971842723 0.001535056291 6.841129991e-25)
(-0.007762747478 0.001569838142 4.151925626e-24)
(-0.009284502853 0.001423556522 -7.359812008e-24)
(-0.0104358944 0.001119720467 7.544675125e-24)
(-0.01113676416 0.0006960833927 -2.096516608e-25)
(-0.01132706068 0.0002030800159 -3.996328849e-24)
(-0.01097172568 -0.0003002311064 5.805414469e-24)
(-0.01007228971 -0.000747514222 -5.930998772e-23)
(-0.008679853975 -0.001075560307 -6.554140901e-23)
(-0.006902839794 -0.001233041405 -7.785800702e-23)
(-0.004910736114 -0.001192635485 4.57452012e-24)
(-0.002927237993 -0.0009619185408 -4.138897999e-24)
(-0.001205309908 -0.0005912119271 -1.999390047e-22)
(-1.90801032e-05 -0.0001698852457 0)
(0.0005181449425 0.0001720823267 1.512284365e-25)
(0.0002227486246 0.0003059766697 -2.587702183e-24)
(-0.0002633843806 0.0008289210668 1.385397111e-25)
(-0.002703316967 0.003383804546 1.558004739e-23)
(-0.006907256319 0.005604459383 1.550605635e-25)
(-0.0119522653 0.007008162319 -8.486152248e-25)
(-0.0171349545 0.007553729358 1.160771298e-24)
(-0.02197523295 0.007294155712 1.305450403e-23)
(-0.02611061626 0.006321858808 1.402778441e-24)
(-0.02926549014 0.004754171413 -7.2960418e-24)
(-0.03122657025 0.002737145674 1.015947922e-23)
(-0.03184185516 0.0004524136442 4.511936851e-24)
(-0.0310274719 -0.001884125703 -6.320840749e-24)
(-0.02879304298 -0.004023002973 2.961513996e-24)
(-0.02527128579 -0.005708323733 3.89628629e-23)
(-0.0207318805 -0.006707378007 -1.955241291e-24)
(-0.01558958768 -0.006854112035 3.755441045e-24)
(-0.01038512064 -0.006097444074 -9.744226531e-23)
(-0.00573027646 -0.004546177494 9.640992741e-23)
(-0.002233379058 -0.002507421321 -3.966551927e-25)
(-0.0001817862834 -0.0005023818549 4.066589091e-25)
(8.343254035e-05 0.0006099185155 0)
(-0.0004188262799 0.002935047689 -2.912809677e-25)
(-0.004647860408 0.008803946676 1.705228116e-23)
(-0.01137190297 0.01324033098 -8.253974273e-24)
(-0.01932718427 0.01579193878 -2.070781151e-25)
(-0.02747395961 0.01652989983 2.034326276e-25)
(-0.03511758396 0.01564432621 7.28171438e-27)
(-0.0417132058 0.01335990284 -1.234815326e-24)
(-0.04683545025 0.009919722598 -4.560571869e-25)
(-0.05014961386 0.00560241538 -1.063801863e-23)
(-0.05141204998 0.0007444353022 0)
(-0.05047768295 -0.004241736759 0)
(-0.04733684371 -0.008887121178 2.671779038e-23)
(-0.04215909798 -0.01268169082 2.813750207e-23)
(-0.03531423567 -0.01513597067 -1.646642125e-24)
(-0.02738986764 -0.01586182201 4.84746961e-23)
(-0.01917000438 -0.01467328444 9.422431251e-23)
(-0.0115608855 -0.01169356924 3.978896262e-23)
(-0.005465410656 -0.007450732692 4.152454608e-25)
(-0.001451105648 -0.002936051455 1.068288524e-25)
(-9.072911742e-05 0.000225866577 0)
(-0.0005024628585 0.00604530531 -4.251910538e-23)
(-0.006402706166 0.01637064048 -1.695448033e-23)
(-0.01553493167 0.02355917409 8.180846134e-24)
(-0.0262789608 0.02744144569 0)
(-0.03728724194 0.02832084628 0)
(-0.0476900902 0.02658757276 0)
(-0.05679629766 0.022631086 -4.513555991e-26)
(-0.06405347418 0.01683601905 -2.12882512e-24)
(-0.06901043295 0.009622158798 0)
(-0.07130790027 0.001491075896 1.637294e-24)
(-0.07070817812 -0.006936431216 2.803920265e-25)
(-0.067130073 -0.01493007745 -2.811771177e-25)
(-0.06069878224 -0.02166714564 0)
(-0.05180728578 -0.02631591311 4.134823561e-23)
(-0.04114975416 -0.02816057306 -4.683134659e-23)
(-0.02971959494 -0.02677361113 -2.763591338e-23)
(-0.01873710803 -0.02221522992 -3.964093202e-23)
(-0.009488005694 -0.01521918656 7.795787931e-25)
(-0.002976877663 -0.007298192429 9.786819865e-23)
(-0.0002318806528 -0.000866178118 0)
(-0.000531611154 0.01009494779 4.2725901e-23)
(-0.007983545762 0.02595202234 4.780430811e-25)
(-0.01939675611 0.03642858786 -4.671247333e-25)
(-0.03282362352 0.04185493825 0)
(-0.04664660847 0.04289458943 7.778226853e-25)
(-0.05985194404 0.04020051144 -7.67037891e-25)
(-0.07163250419 0.03434724202 3.670824124e-23)
(-0.08132706258 0.02585653301 1.846670549e-23)
(-0.08836553906 0.01527294836 6.234777949e-24)
(-0.09225422201 0.003246184835 -1.63920147e-24)
(-0.09260334266 -0.00940772678 0)
(-0.08917513614 -0.02167461818 4.373012151e-25)
(-0.08195942498 -0.03236724911 1.009821224e-23)
(-0.07126854927 -0.04021228207 -4.350954491e-23)
(-0.05781995178 -0.04402025036 1.933892266e-24)
(-0.04278566325 -0.04294811046 4.220510026e-23)
(-0.02775440202 -0.03683333471 -3.846927432e-25)
(-0.01455057471 -0.02652713278 0)
(-0.004859448869 -0.01408452033 5.436528114e-23)
(-0.0003641476721 -0.002846958063 -2.564711115e-22)
(-0.0005272179947 0.01499917731 9.838356065e-23)
(-0.009377869816 0.03738997916 -4.905338391e-25)
(-0.02288169382 0.0517019005 0)
(-0.03883021021 0.05894146745 0)
(-0.05538625237 0.06025539159 -8.730560953e-23)
(-0.07142837055 0.05661870031 -8.497579048e-23)
(-0.08606607995 0.04880144851 -4.065935177e-23)
(-0.09855035153 0.03743965488 -1.503629626e-23)
(-0.1081939955 0.02315978715 -5.365290487e-24)
(-0.1143439304 0.00670972506 -8.172987524e-24)
(-0.1164040916 -0.01093278428 6.59896697e-24)
(-0.1138932431 -0.02848923573 8.822717449e-24)
(-0.1065482509 -0.04437019073 -1.892287254e-23)
(-0.09446765803 -0.05675303476 4.590969609e-24)
(-0.07826826224 -0.06378268308 0)
(-0.05922872915 -0.06393468163 -1.574571629e-23)
(-0.03933967404 -0.05653794916 -2.375905413e-26)
(-0.02114181273 -0.04235795406 0)
(-0.007318677598 -0.02398223392 -1.520286687e-22)
(-0.0005216143092 -0.005925539495 6.055529654e-22)
(-0.0004990789567 0.02064561266 -9.771338076e-23)
(-0.01052945227 0.0504540623 2.831659077e-22)
(-0.02582943738 0.06912469227 1.526701256e-22)
(-0.04402115375 0.07849211605 3.618787667e-24)
(-0.06310707 0.08029431609 -7.319266592e-23)
(-0.08190364471 0.07588003735 9.041936462e-23)
(-0.09947716044 0.06621660225 -3.589723941e-24)
(-0.1150222091 0.05201675427 -1.728920411e-24)
(-0.1277513569 0.0339235085 2.523786154e-24)
(-0.1368466865 0.01270237767 7.380746075e-24)
(-0.1414704856 -0.01058766201 -6.498836904e-24)
(-0.1408242773 -0.03445998219 -9.78374794e-24)
(-0.1342740997 -0.05692737791 -3.261773563e-23)
(-0.1215445874 -0.07553277483 -3.658845431e-23)
(-0.1029669046 -0.0875422056 5.640597743e-25)
(-0.07976342433 -0.09039172322 0)
(-0.05426664047 -0.08244482892 0)
(-0.02987150858 -0.06397715439 -2.905501711e-24)
(-0.01066281513 -0.03798783796 2.969938456e-24)
(-0.0007350903261 -0.01050087356 1.02786668e-22)
(-0.0004479149321 0.02687234873 0)
(-0.01134918114 0.0648071866 2.001965012e-22)
(-0.02801587144 0.08829565774 8.962044292e-23)
(-0.0479983621 0.1001229361 0)
(-0.06920572221 0.1027071172 1.569725372e-22)
(-0.09044335459 0.09781531654 0)
(-0.1107827231 0.08661066355 -1.428299498e-22)
(-0.1294088794 0.06983926271 6.515047427e-24)
(-0.1454766321 0.04808221974 0)
(-0.1580346332 0.02201759518 0)
(-0.1660127982 -0.007334264753 -1.374275999e-24)
(-0.1682666255 -0.03838810121 -9.315400685e-25)
(-0.1637059723 -0.06883936429 1.491800997e-22)
(-0.1515204278 -0.09558229579 -4.704644417e-23)
(-0.1315130724 -0.1148293749 -2.560417554e-24)
(-0.1045593049 -0.1225698661 1.534180007e-24)
(-0.07309328682 -0.1155513857 -1.558380595e-24)
(-0.04135009335 -0.09283085255 0)
(-0.01525225643 -0.05740750655 3.203517617e-24)
(-0.0010443048 -0.01714710192 -1.012837934e-21)
(-0.0003744675361 0.03346285751 0)
(-0.01175002354 0.07998874232 -1.128130444e-22)
(-0.02920698199 0.1086385056 -6.190816786e-22)
(-0.05031728147 0.1232227606 -3.755137716e-22)
(-0.07296293324 0.1269090885 0)
(-0.09598929379 0.1219250272 4.11927815e-22)
(-0.1185269831 0.1096344439 1.260846523e-22)
(-0.1398142326 0.09078217897 -5.58155893e-24)
(-0.1590217156 0.06581380535 5.553933213e-24)
(-0.175145645 0.03520884078 0)
(-0.1869555398 -0.0001965675961 2.912012906e-23)
(-0.1930168144 -0.03889722813 4.695551543e-24)
(-0.1917805601 -0.07843845621 -1.076715733e-22)
(-0.181787043 -0.115186024 8.003307634e-23)
(-0.1620566874 -0.1442593852 -2.41955814e-22)
(-0.1327059048 -0.1598543007 0)
(-0.09577866294 -0.1563107807 0)
(-0.05601619766 -0.1302977124 0)
(-0.02147853728 -0.0838111124 0)
(-0.001500379529 -0.02665509329 5.571734853e-22)
(-0.0002873932193 0.04016057272 0)
(-0.01169357836 0.09543563182 -3.492850744e-22)
(-0.02924432761 0.1294067228 8.932455322e-22)
(-0.05060936927 0.1469292222 3.61701542e-22)
(-0.07370067238 0.1519741983 0)
(-0.09745131033 0.1472752125 -3.862386881e-22)
(-0.1211067436 0.1344187377 -3.174316619e-23)
(-0.1440322095 0.1141390262 3.333006715e-22)
(-0.1655140361 0.0866999239 1.769424607e-22)
(-0.1846245557 0.05229125679 -4.060043243e-23)
(-0.2001322826 0.01141733975 1.65681434e-23)
(-0.210461948 -0.03471392282 -8.264943197e-24)
(-0.2137205613 -0.08376519716 3.371754872e-22)
(-0.2078212664 -0.1318751011 0)
(-0.1908235851 -0.1732750172 2.420727075e-22)
(-0.1616333334 -0.2002587221 5.774191252e-24)
(-0.1211660752 -0.204011588 -5.860301524e-24)
(-0.07384976921 -0.1772115158 1.548251923e-22)
(-0.02971781071 -0.1188639234 -5.434859847e-24)
(-0.002179539423 -0.04005388699 0)
(-0.0002117247107 0.04671619051 0)
(-0.0112500152 0.1105493143 0)
(-0.02815624052 0.1497348376 -5.022587755e-22)
(-0.04874477133 0.1701510395 -1.880942789e-23)
(-0.07100082328 0.1766250209 2.038320886e-23)
(-0.0939944516 0.1724520478 -2.014254065e-23)
(-0.1171433513 0.1594866287 -2.316822751e-23)
(-0.1400178633 0.1384801965 -3.029733985e-22)
(-0.1621328005 0.1095159276 6.698589746e-23)
(-0.1827958183 0.07245189084 4.513054044e-23)
(-0.2009834741 0.02734946297 -4.577595488e-23)
(-0.2152269452 -0.02508666722 0)
(-0.2235561336 -0.08298308871 -7.839200867e-23)
(-0.223463118 -0.1427252151 0)
(-0.2120678242 -0.1981815009 -3.739454793e-22)
(-0.186743323 -0.2400767443 5.244749642e-22)
(-0.1464437013 -0.256076725 0)
(-0.09394557531 -0.2331204135 -1.49380405e-22)
(-0.04021995625 -0.1639609953 1.937353814e-22)
(-0.003201094217 -0.05861049934 -3.411333857e-22)
(-0.0002015470321 0.05297565083 0)
(-0.01067264673 0.1248167535 9.182676723e-22)
(-0.02628451819 0.1687418056 -2.440628695e-23)
(-0.04501114667 0.1916448006 9.193150237e-22)
(-0.06494605559 0.199291419 -2.512029483e-23)
(-0.08536637593 0.1956098385 2.838783315e-23)
(-0.1059306664 0.1827882281 -2.812869931e-23)
(-0.1264925341 0.1616580556 -1.660885749e-23)
(-0.1468998164 0.132176102 -5.260130439e-22)
(-0.1668459634 0.09389649819 -8.906464666e-24)
(-0.1857304612 0.04640593736 9.66002965e-24)
(-0.2024783294 -0.01023755329 3.313029398e-22)
(-0.2154156091 -0.07499781091 -5.820638407e-22)
(-0.2220210884 -0.1450307129 0)
(-0.2188032818 -0.214675528 8.887120574e-22)
(-0.2016257715 -0.2740010628 -4.94069463e-22)
(-0.1668638927 -0.3075806009 -1.572160806e-23)
(-0.1140219602 -0.2953806409 0)
(-0.05288478086 -0.2195798481 -1.889990811e-22)
(-0.0047491824 -0.08377261951 3.360395016e-22)
(-0.000364205881 0.05902300062 1.550980699e-23)
(-0.01049579037 0.1379877066 -8.764013319e-22)
(-0.02441400113 0.1856798024 -1.157039411e-21)
(-0.04026740211 0.2101378039 -8.628810693e-22)
(-0.05630749939 0.2182342445 0)
(-0.07214880818 0.2146184723 3.513743882e-23)
(-0.0877924938 0.2018787775 -7.294742151e-23)
(-0.1034565889 0.1810003023 5.867788867e-23)
(-0.1193987264 0.1518996278 3.021316e-22)
(-0.1357935178 0.1139151106 -1.128179169e-23)
(-0.1526086106 0.0662144303 0)
(-0.1694525167 0.008177483174 -3.603876428e-22)
(-0.1852764211 -0.0601595235 7.515570401e-22)
(-0.1980451743 -0.1372742943 8.831596517e-22)
(-0.2043548874 -0.2189257386 -5.296525528e-22)
(-0.1990979428 -0.2959708019 5.162592976e-22)
(-0.1760606296 -0.3514067401 1.078173151e-23)
(-0.1300890878 -0.3584145688 -1.095487231e-23)
(-0.06688802002 -0.2843272383 -8.217198378e-23)
(-0.007083315605 -0.1169962636 0)
(-0.0009095857936 0.06540027333 -1.911456772e-23)
(-0.01167598765 0.1502812657 -1.326946659e-21)
(-0.02388897383 0.2000654254 1.094218971e-21)
(-0.03601364081 0.2244211006 6.734832686e-22)
(-0.04657339924 0.2316582469 6.014545412e-22)
(-0.05577076102 0.2272388774 6.643862602e-22)
(-0.06411288601 0.2141771247 -4.458614555e-23)
(-0.07227608738 0.1936492271 -3.461293175e-22)
(-0.08097023304 0.1656027726 2.152136749e-22)
(-0.09087244824 0.1292708133 0)
(-0.1025552799 0.0835310131 0)
(-0.1163627453 0.02720037447 2.655371587e-22)
(-0.1321594635 -0.04061974498 8.194351715e-23)
(-0.1489256973 -0.1200124903 -2.821575997e-22)
(-0.1641288286 -0.2089297121 -5.411210309e-23)
(-0.1727880745 -0.3006988739 1.301952114e-22)
(-0.1670313394 -0.3793325055 -3.400408921e-22)
(-0.1365293473 -0.4136447777 -1.594743323e-23)
(-0.08018252348 -0.3538322478 8.205968485e-23)
(-0.01050762166 -0.1594128766 -6.032335203e-22)
(-0.0022605066 0.07348873693 0)
(-0.01580363999 0.1626518907 2.145845814e-21)
(-0.02665061304 0.2117900474 0)
(-0.03422369143 0.2333942338 -1.351789767e-21)
(-0.03759437875 0.2377761977 6.184079459e-23)
(-0.03799732878 0.2312549382 -6.19300613e-22)
(-0.0366831976 0.2171895994 -4.756225005e-22)
(-0.03489094624 0.1968932859 8.301153164e-22)
(-0.03378898916 0.1703342093 -1.885675439e-22)
(-0.03449938362 0.1367221991 0)
(-0.03811634098 0.09479692209 0)
(-0.04565051907 0.04304311379 2.410629775e-23)
(-0.05790860696 -0.02013753385 -6.007143285e-22)
(-0.07514650511 -0.09620622066 -4.309525029e-22)
(-0.09645220886 -0.1855553442 4.637819887e-22)
(-0.1183466397 -0.2853565088 -6.488638761e-22)
(-0.1332718178 -0.3838383722 9.119814938e-23)
(-0.1265352637 -0.4504355737 2.938281576e-23)
(-0.08899159771 -0.4198533442 5.660523099e-22)
(-0.01526918251 -0.2111718106 6.020967614e-22)
(-0.005180906364 0.08598041013 0)
(-0.0252555924 0.1766289337 1.465581384e-22)
(-0.03483427856 0.2205958508 -4.917087685e-23)
(-0.03640045906 0.2354855631 7.642834617e-22)
(-0.03018526311 0.2343402985 -7.005287717e-22)
(-0.01916632058 0.2241600612 4.746423352e-23)
(-0.005615739118 0.208352346 -1.018600465e-22)
(0.008568977925 0.18812398 -3.38984885e-22)
(0.02179821117 0.1633911103 2.062801968e-22)
(0.03262717132 0.1333243575 0)
(0.03958396603 0.0966410246 0)
(0.04116955046 0.05174077655 -2.902643543e-22)
(0.03578429827 -0.003255167662 0)
(0.02198135575 -0.07058338223 -5.512145689e-22)
(-0.001265279905 -0.1525733457 -1.492341538e-23)
(-0.03310506405 -0.2505948023 2.559691484e-23)
(-0.06909265 -0.3599339753 2.203059513e-22)
(-0.09227846108 -0.4575422804 4.788589466e-24)
(-0.08718097685 -0.4698127484 -5.789496975e-22)
(-0.02103127955 -0.2698971038 0)
(-0.01111631881 0.1085974935 0)
(-0.042489088 0.1947150804 -8.848390622e-22)
(-0.04795546302 0.2258193693 -5.410991046e-22)
(-0.03919565096 0.2282133093 4.543770015e-22)
(-0.01877870723 0.2182325492 -1.709990187e-24)
(0.007663814458 0.2028217961 -4.560996855e-23)
(0.03667936762 0.1847617972 5.696615042e-22)
(0.06582938012 0.1647117164 -2.766861585e-23)
(0.0932706908 0.1423127978 -2.069760697e-22)
(0.1173885572 0.1166275523 3.142184628e-23)
(0.1365455989 0.08641155999 -3.425888646e-23)
(0.1489664034 0.05017685221 -3.690566767e-23)
(0.1525271115 0.006159345824 3.205609889e-22)
(0.1449362965 -0.04796109833 6.119559959e-22)
(0.1235156282 -0.1153051435 -5.101127356e-22)
(0.086335045 -0.2004194489 -1.616022765e-22)
(0.03199063995 -0.3067805691 1.531342138e-22)
(-0.02362141236 -0.4239836237 7.293699671e-23)
(-0.06492420403 -0.4871611756 1.913298225e-21)
(-0.0250997271 -0.3291543937 2.954998943e-21)
(-0.02004680169 0.1460727653 -4.390179801e-23)
(-0.06416409384 0.2112955713 4.417352379e-23)
(-0.05070240872 0.2177299686 1.000180182e-21)
(-0.01934116831 0.2014678642 -8.270353278e-24)
(0.02414435657 0.1809074577 0)
(0.07154083786 0.1606931792 4.363670364e-23)
(0.1190698893 0.1416494243 -2.273825236e-22)
(0.1644762384 0.1233181028 -9.02784906e-23)
(0.2062246045 0.1048117045 3.680693057e-23)
(0.2429638011 0.08507142875 -1.701640223e-23)
(0.273220289 0.06296154845 3.42994192e-23)
(0.2952531924 0.03726303938 -6.592627387e-23)
(0.3066967415 0.006535182187 -9.303848369e-23)
(0.3049735236 -0.03087759016 1.517029948e-22)
(0.2863933744 -0.07786281785 0)
(0.2470566086 -0.1399299732 1.505571531e-22)
(0.1810920617 -0.226629946 2.560017557e-22)
(0.09604438151 -0.3443894588 0)
(-0.006697677701 -0.4552209834 -3.675645633e-21)
(-0.0192240921 -0.3777537234 -2.892628168e-21)
(-0.02591950582 0.2276829061 -9.514185727e-22)
(-0.03998323403 0.2238216707 -1.388968613e-22)
(0.03656135651 0.1810585207 -2.335561041e-22)
(0.1090502394 0.1451058607 -1.193731663e-22)
(0.1817189851 0.1172444796 -4.295778798e-23)
(0.2490088657 0.09627900206 9.78303506e-23)
(0.3100333984 0.08002504035 -1.408571981e-22)
(0.3646206148 0.06656811003 1.297159365e-22)
(0.4126249065 0.05449177188 -8.620024061e-23)
(0.4536246866 0.04270895888 1.132189757e-25)
(0.4867875498 0.03032301636 1.527728216e-23)
(0.5107448513 0.01652906609 7.997138285e-23)
(0.52365951 0.0005365653085 -1.811108777e-22)
(0.5231796214 -0.01863368264 -1.617132066e-22)
(0.5052322094 -0.04286474913 -4.262863984e-23)
(0.4658714145 -0.07633228631 0)
(0.3952695818 -0.1286089303 -1.846498413e-22)
(0.2916070535 -0.2208468073 8.1487845e-22)
(0.1197454795 -0.352501688 1.631605034e-21)
(0.02670546477 -0.3775497932 2.172657616e-21)
(0.2142894545 0.1347447286 9.864968559e-22)
(0.277631142 0.09870504557 0)
(0.4316592548 0.05810415273 -2.594301589e-22)
(0.5304749452 0.0384626477 -1.741648066e-22)
(0.6016965552 0.02623418461 0)
(0.6571198381 0.0183192265 -6.008997612e-23)
(0.7015212664 0.01313600129 6.37790297e-23)
(0.7376041288 0.009542122177 -1.800130508e-23)
(0.7669367059 0.006804463567 2.885934913e-23)
(0.7902105328 0.004464748005 2.315006335e-23)
(0.8074553785 0.002221327285 0)
(0.8182620358 -0.0001500654439 -2.87300682e-23)
(0.8216499003 -0.002723838164 0)
(0.816239378 -0.005712660961 2.738105269e-23)
(0.7991332967 -0.009611378259 1.421649425e-23)
(0.7679986322 -0.01500254979 -5.799445309e-23)
(0.7106555793 -0.02502520152 -2.535673215e-22)
(0.6235184004 -0.04204285644 -6.918118236e-22)
(0.4230091015 -0.09182968327 0)
(0.2705674682 -0.1524021852 -2.119485439e-21)
)


// ************************************************************************* //
