/*--------------------------------*- C++ -*----------------------------------*\
  =========                 |
  \\      /  F ield         | OpenFOAM: The Open Source CFD Toolbox
   \\    /   O peration     | Website:  https://openfoam.org
    \\  /    A nd           | Version:  13
     \\/     M anipulation  |
\*---------------------------------------------------------------------------*/
FoamFile
{
    format      ascii;
    class       scalarField;
    location    "37.43";
    object      p_all;
}
// * * * * * * * * * * * * * * * * * * * * * * * * * * * * * * * * * * * * * //


400
(
1.066945914e-07
-0.000547386333
-0.0008894382452
-0.001016920802
-0.0009380597135
-0.0006852194821
-0.0002959561776
0.0001937638848
0.0007474226046
0.001324515042
0.001879372258
0.002359126412
0.002708392661
0.002874098541
0.002814729937
0.002512295352
0.001987253517
0.001296730272
0.0006378025256
4.189713632e-05
0.0005882743561
6.972932078e-06
-0.0003567792208
-0.0004991095215
-0.0004684387192
-0.0002913576061
2.730739603e-06
0.0003845404716
0.0008226872977
0.001279925922
0.001716405156
0.002080954561
0.002323184043
0.002395722449
0.002264711886
0.00192139717
0.001392533171
0.0007431680747
0.0001455245054
-0.0005171774932
0.0009525313128
0.0003081311023
-9.313800414e-05
-0.0002394932012
-0.0002333800435
-0.0001048656068
0.0001219935701
0.0004258853249
0.0007830707102
0.001161557901
0.001529563722
0.001832963446
0.00202182354
0.002047409035
0.001874577392
0.001493516057
0.0009282131009
0.0002352295442
-0.0004632440198
-0.001300230094
0.0009762281244
0.0002580754978
-0.0001921665128
-0.0003444768108
-0.0003537635218
-0.0002567979775
-7.420606022e-05
0.0001814111656
0.0004964936381
0.0008507965885
0.001203132417
0.00151059032
0.001712380407
0.001747972848
0.001568493688
0.001150550946
0.0005059654195
-0.0003185242352
-0.001233864745
-0.002384674119
0.0004805621506
-0.0002849276362
-0.0007638167071
-0.0009155085072
-0.0009365402622
-0.0008681339382
-0.0007252451127
-0.0005083149744
-0.0002170617237
0.000139257088
0.0005302011423
0.0009074950344
0.001199919794
0.001326597797
0.001211118226
0.0008002815266
8.003376231e-05
-0.0009175662341
-0.002127557014
-0.003656062295
-0.0006862662729
-0.001467071528
-0.001956122663
-0.002107166853
-0.002149936264
-0.002126587268
-0.002042216843
-0.001879606064
-0.001617495634
-0.001245458607
-0.0007790371267
-0.0002627762652
0.0002206995519
0.0005615629368
0.0006379070441
0.0003416004551
-0.0003929565284
-0.001563992495
-0.003134779426
-0.005142018533
-0.002661723795
-0.003423445521
-0.00391532538
-0.00408070955
-0.004178073893
-0.004247120922
-0.004278137711
-0.004229086444
-0.004047488189
-0.003689538481
-0.00314068471
-0.002426684364
-0.00163344011
-0.0009033739654
-0.0004247685366
-0.000398635572
-0.0009881820674
-0.002260520387
-0.004232679647
-0.006828258171
-0.005554935544
-0.006269851861
-0.006768143646
-0.006982100282
-0.007195496337
-0.007443394937
-0.007697098537
-0.007882162326
-0.007902128819
-0.007660572833
-0.007087308321
-0.006159453444
-0.004943705665
-0.00360482783
-0.002413898471
-0.001714482286
-0.001843169444
-0.003014982276
-0.005368416079
-0.008662210235
-0.009435173117
-0.0100814982
-0.01059836022
-0.01091060221
-0.01132601196
-0.01187590281
-0.01251128303
-0.01311965816
-0.01354781641
-0.01362338574
-0.01318250849
-0.01212115377
-0.01042806018
-0.008256593462
-0.005956367057
-0.004061945118
-0.003190210978
-0.003843112036
-0.006426507731
-0.01049169599
-0.01431694161
-0.01487593264
-0.01542291518
-0.01588215471
-0.01658999392
-0.01758013135
-0.01878699858
-0.02005913536
-0.02117762498
-0.02187367851
-0.02185745567
-0.02087233784
-0.01877199658
-0.01562017056
-0.01179514422
-0.008037407153
-0.005359966286
-0.00476022574
-0.007181247098
-0.01197932879
-0.02015444246
-0.02060467598
-0.0211748657
-0.02179686645
-0.02285222007
-0.02439047903
-0.02633935313
-0.02851374603
-0.03062769335
-0.0323036305
-0.03309538673
-0.03254083373
-0.03028261003
-0.02617880882
-0.02052500431
-0.014204034
-0.008691643529
-0.005726714205
-0.007219361027
-0.01246650869
-0.02685646815
-0.02716222929
-0.02770266855
-0.02842308409
-0.02978928298
-0.03188922169
-0.03465901013
-0.03788977817
-0.04123406951
-0.0442051996
-0.04618827517
-0.04647892259
-0.04446322088
-0.03966016739
-0.03212115276
-0.0226988763
-0.01326668342
-0.006486043831
-0.005808736112
-0.01076533239
-0.03433483174
-0.03441823881
-0.03478957838
-0.03540466137
-0.03689197208
-0.03941012517
-0.04292017072
-0.04719780915
-0.0518402077
-0.05625852716
-0.05967988693
-0.06119105085
-0.05977967398
-0.05465591855
-0.04544119397
-0.03269983443
-0.018453214
-0.006246021598
-0.001674065776
-0.004873700775
-0.04260997526
-0.04227954429
-0.04219576345
-0.04229608264
-0.04351382746
-0.04611652359
-0.05009974194
-0.05522051642
-0.06101520319
-0.06679631911
-0.07164026753
-0.07441316936
-0.07383272954
-0.06867504792
-0.05807210923
-0.04206198082
-0.02244018961
-0.003257357191
0.007346936471
0.008341331998
-0.05201047918
-0.05076113256
-0.04967795616
-0.04857905453
-0.04892691773
-0.05112034554
-0.05517304357
-0.06079639596
-0.06743570841
-0.07429008017
-0.08028296171
-0.08407641728
-0.08413085068
-0.07883773679
-0.06684299872
-0.04752360635
-0.02212763409
0.005501629577
0.02471523192
0.03352727174
-0.0636560758
-0.06018937362
-0.05709752073
-0.05376457311
-0.05246571681
-0.05368038611
-0.05736523327
-0.06313843477
-0.07026291044
-0.07780137677
-0.0844930689
-0.08878628367
-0.0888986036
-0.08283987842
-0.06885096234
-0.04562098397
-0.01375166133
0.02441677179
0.05553952532
0.07735576558
-0.08018663018
-0.0710751884
-0.06412144673
-0.05716575573
-0.05343192096
-0.05321600997
-0.05625977114
-0.06191479999
-0.06925994898
-0.07711794002
-0.08401320495
-0.08815266262
-0.08748109446
-0.07965681325
-0.06247965949
-0.03405057201
0.005564818059
0.05859399869
0.1058230381
0.1480677458
-0.1105080146
-0.08585532548
-0.07160729394
-0.05897233199
-0.05191474437
-0.04988450202
-0.05210432183
-0.05751048531
-0.0648613164
-0.07271020136
-0.07934162044
-0.0827149163
-0.08052064039
-0.06988754072
-0.04823260468
-0.01272263845
0.03823613992
0.1071321088
0.1779786717
0.2564765102
-0.1684381888
-0.09990948627
-0.07500958044
-0.05479920925
-0.04462036208
-0.04158690784
-0.04371955318
-0.04938349621
-0.05701916252
-0.06497273684
-0.07136360489
-0.07398187501
-0.07013066811
-0.05701414335
-0.03102874248
0.01192930007
0.07559949069
0.1664042588
0.2761620374
0.4377043006
-0.3984294671
-0.1381006284
-0.07497173837
-0.04708975777
-0.03355083932
-0.03003165885
-0.03280387997
-0.0392667069
-0.04756050727
-0.0559410648
-0.06250207944
-0.06503114382
-0.06099637613
-0.04697016668
-0.01875695549
0.02993542739
0.1069556835
0.2334272726
0.4198802275
0.7800234093
)


// ************************************************************************* //
