/*--------------------------------*- C++ -*----------------------------------*\
  =========                 |
  \\      /  F ield         | OpenFOAM: The Open Source CFD Toolbox
   \\    /   O peration     | Website:  https://openfoam.org
    \\  /    A nd           | Version:  13
     \\/     M anipulation  |
\*---------------------------------------------------------------------------*/
FoamFile
{
    format      ascii;
    class       scalarField;
    location    "35.42";
    object      p_all;
}
// * * * * * * * * * * * * * * * * * * * * * * * * * * * * * * * * * * * * * //


400
(
1.651595895e-07
-0.0005473160917
-0.0008893657336
-0.001016870668
-0.0009380248966
-0.0006851559058
-0.0002958369018
0.0001939096693
0.0007475312279
0.001324548295
0.001879353989
0.002359112842
0.002708432002
0.002874197338
0.002814855173
0.002512407954
0.001987339377
0.001296801984
0.0006378776829
4.197779403e-05
0.0005883391438
7.03963733e-06
-0.0003566871571
-0.0004990161206
-0.0004683888123
-0.0002913545066
2.737617237e-06
0.0003846082141
0.0008228227536
0.001280078518
0.001716522454
0.002081012306
0.002323203564
0.0023957477
0.00226476995
0.001921481541
0.001392621058
0.0007432468619
0.0001455970569
-0.0005170944301
0.0009525960181
0.0003081739286
-9.30779954e-05
-0.0002393897546
-0.0002332598828
-0.0001047797912
0.0001220218047
0.000425884576
0.000783093859
0.001161632052
0.001529676022
0.001833079027
0.002021910802
0.002047464245
0.001874619835
0.001493565097
0.0009282738981
0.0002352991235
-0.0004631672838
-0.001300145205
0.0009763154311
0.0002581332318
-0.0001921391033
-0.000344435345
-0.0003536778506
-0.0002566799562
-7.409729896e-05
0.0001814791642
0.0004965271783
0.0008508282208
0.001203185594
0.001510673701
0.001712476638
0.001748057511
0.001568556367
0.001150599367
0.000506014131
-0.0003184644243
-0.001233790006
-0.002384590575
0.0004806496496
-0.0002848267623
-0.0007637508538
-0.0009154757167
-0.0009365079404
-0.0008680711756
-0.0007251500443
-0.0005082131996
-0.0002169794423
0.0001393151269
0.0005302479866
0.0009075514865
0.001199995126
0.001326682866
0.001211196867
0.0008003463304
8.009042315e-05
-0.0009175061897
-0.002127485459
-0.003655984179
-0.0006862158634
-0.00146698021
-0.001956021811
-0.002107087898
-0.002149885681
-0.002126546396
-0.002042161855
-0.001879529238
-0.001617407858
-0.001245374977
-0.000778965652
-0.0002627119197
0.0002207678949
0.0005616402276
0.0006379880587
0.0003416771573
-0.0003928865151
-0.001563925022
-0.003134708208
-0.005141945015
-0.002661684319
-0.003423394731
-0.003915245738
-0.004080616038
-0.004177988641
-0.004247054368
-0.00427808307
-0.00422902964
-0.004047420564
-0.003689460345
-0.003140603154
-0.002426605453
-0.001633364033
-0.0009032973072
-0.0004246897137
-0.0003985563279
-0.0009881048122
-0.002260446072
-0.004232606486
-0.006828185952
-0.00555486586
-0.006269804968
-0.006768091531
-0.006982028992
-0.00719541043
-0.007443308648
-0.007697022508
-0.007882097109
-0.007902067556
-0.007660507048
-0.007087234361
-0.006159373725
-0.004943624867
-0.003604748481
-0.00241382039
-0.00171440441
-0.001843091458
-0.003014905394
-0.005368340954
-0.008662136531
-0.009435082635
-0.01008142519
-0.01059830325
-0.01091054489
-0.01132594235
-0.01187582099
-0.01251119768
-0.01311957821
-0.01354774527
-0.01362331973
-0.01318244086
-0.01212108072
-0.01042798251
-0.008256514379
-0.005956288898
-0.004061868105
-0.003190134209
-0.003843035447
-0.006426431733
-0.01049162013
-0.01431686093
-0.01487584648
-0.01542283988
-0.01588208956
-0.01658992902
-0.01758005857
-0.01878691712
-0.02005905035
-0.02117754307
-0.02187360294
-0.02185738447
-0.02087226661
-0.01877192243
-0.01562009367
-0.01179506644
-0.008037329969
-0.005359889907
-0.004760149771
-0.007181171023
-0.01197925179
-0.02015437637
-0.02060459803
-0.02117478483
-0.02179679031
-0.02285214805
-0.024390406
-0.02633927494
-0.02851366206
-0.03062760671
-0.03230354568
-0.03309530624
-0.03254075676
-0.03028253411
-0.02617873212
-0.02052492669
-0.01420395643
-0.008691566772
-0.005726638232
-0.007219285089
-0.01246643187
-0.0268564005
-0.02716216025
-0.02770259384
-0.02842300668
-0.02978920528
-0.03188914348
-0.03465892996
-0.03788969439
-0.04123398196
-0.04420511033
-0.04618818729
-0.04647883813
-0.04446313967
-0.03966008814
-0.03212107438
-0.02269879852
-0.01326660644
-0.006485967708
-0.005808660422
-0.01076525658
-0.03433475319
-0.03441816753
-0.03478950799
-0.03540458831
-0.03689189547
-0.03941004522
-0.04292008832
-0.04719772447
-0.0518401205
-0.05625843783
-0.05967979712
-0.06119096272
-0.05977958893
-0.05465583668
-0.04544111461
-0.03269975673
-0.01845313742
-0.006245945864
-0.001673990739
-0.004873626359
-0.04260989077
-0.0422794658
-0.04219569069
-0.04229601148
-0.04351375442
-0.04611644667
-0.05009966148
-0.05522043322
-0.06101511793
-0.06679623242
-0.07164018033
-0.07441308293
-0.07383264519
-0.06867496638
-0.05807203045
-0.04206190416
-0.02244011432
-0.003257282716
0.007347010182
0.008341404743
-0.05201039672
-0.05076105109
-0.04967787941
-0.04857898137
-0.04892684579
-0.05112027207
-0.05517296768
-0.06079631742
-0.06743562748
-0.07428999774
-0.08028287892
-0.08407633522
-0.0841307703
-0.07883765863
-0.06684292285
-0.04752353232
-0.02212756128
0.005501701742
0.02471530355
0.03352734246
-0.06365599765
-0.06018929483
-0.05709744356
-0.05376449784
-0.05246564332
-0.05368031319
-0.05736516005
-0.06313836086
-0.07026283455
-0.07780129925
-0.08449299075
-0.08878620613
-0.08889852782
-0.0828398045
-0.06885089046
-0.04562091357
-0.013751592
0.02441684098
0.05553959431
0.07735583409
-0.08018655475
-0.07107511372
-0.06412137262
-0.05716568158
-0.05343184651
-0.05321593592
-0.05625969777
-0.06191472688
-0.06925987533
-0.07711786551
-0.08401313001
-0.08815258817
-0.08748102122
-0.07965674252
-0.06247959095
-0.03405050511
0.005564883131
0.0585940663
0.1058231047
0.1480678122
-0.1105079415
-0.08585525345
-0.07160722302
-0.05897226204
-0.05191467252
-0.04988442837
-0.05210424729
-0.05751041038
-0.06486124129
-0.07271012628
-0.07934154583
-0.08271484287
-0.08052056909
-0.06988747166
-0.04823253796
-0.01272257341
0.03823620405
0.1071321733
0.1779787364
0.2564765749
-0.1684381191
-0.09990941687
-0.07500951227
-0.05479914122
-0.04462029217
-0.04158683536
-0.04371947848
-0.04938341996
-0.05701908551
-0.06497265994
-0.07136352891
-0.07398180073
-0.07013059622
-0.05701407425
-0.03102867581
0.01192936491
0.0755995545
0.1664043225
0.2761621012
0.4377043647
-0.3984293995
-0.1381005621
-0.07497167239
-0.04708969072
-0.03355076998
-0.03003158683
-0.03280380559
-0.03926663081
-0.04756043023
-0.05594098767
-0.06250200307
-0.06503106905
-0.06099630361
-0.04697009676
-0.01875688798
0.02993549301
0.106955748
0.2334273366
0.4198802916
0.7800234735
)


// ************************************************************************* //
