/*--------------------------------*- C++ -*----------------------------------*\
  =========                 |
  \\      /  F ield         | OpenFOAM: The Open Source CFD Toolbox
   \\    /   O peration     | Website:  https://openfoam.org
    \\  /    A nd           | Version:  13
     \\/     M anipulation  |
\*---------------------------------------------------------------------------*/
FoamFile
{
    format      ascii;
    class       vectorField;
    location    "2.73";
    object      U_all;
}
// * * * * * * * * * * * * * * * * * * * * * * * * * * * * * * * * * * * * * //


400
(
(-3.207324257e-05 3.388690571e-05 0)
(-0.0006041295417 0.0003613366362 -8.426406997e-24)
(-0.001704145716 0.0006997410314 0)
(-0.003007796111 0.0009527041511 0)
(-0.004328449041 0.001089761223 -9.796978616e-26)
(-0.005554707157 0.001103297621 3.184339228e-24)
(-0.006615012546 0.00100070724 2.135043916e-23)
(-0.007461708489 0.0007978621344 3.87305364e-23)
(-0.008058914266 0.0005162693255 -4.959892016e-25)
(-0.00837637062 0.0001820968772 -8.586206968e-24)
(-0.00838840261 -0.0001740482242 1.132408351e-23)
(-0.008076079252 -0.000517172285 -1.089077015e-22)
(-0.007433628243 -0.0008098872697 -1.252686869e-22)
(-0.006478052713 -0.001014825679 -1.47492442e-22)
(-0.00525870614 -0.00109946643 9.677484935e-24)
(-0.003866480066 -0.001043559375 -1.024734383e-23)
(-0.002440188855 -0.0008480965082 -6.656217998e-22)
(-0.001169028955 -0.0005411775727 0)
(-0.0002341383622 -0.0001896053179 2.500322484e-24)
(5.746894811e-05 7.535577228e-05 -3.110961815e-22)
(-0.0001923532648 0.0007274350562 7.632375176e-26)
(-0.001918401555 0.002481549146 8.507857834e-24)
(-0.004738976919 0.003897037071 5.610071738e-26)
(-0.008062005887 0.004756918433 7.383341824e-26)
(-0.01143946022 0.00507121001 -3.592689416e-25)
(-0.01459466245 0.004895453879 -1.162440634e-23)
(-0.01733644878 0.004300916014 2.630763865e-23)
(-0.01953297114 0.003362109222 -3.774893995e-23)
(-0.02108603883 0.002155196244 2.720340613e-23)
(-0.02191628379 0.0007620423048 9.787975291e-24)
(-0.02195943858 -0.0007237196502 -1.235275005e-23)
(-0.02117233737 -0.00219115142 -9.840317403e-26)
(-0.01954761174 -0.003510603105 6.724770517e-23)
(-0.01713464352 -0.00453817512 -4.560803066e-24)
(-0.01406269732 -0.005128996636 9.480181654e-24)
(-0.01056099144 -0.005161168725 -3.277910388e-22)
(-0.006966549877 -0.004569697172 3.438401503e-22)
(-0.003706963656 -0.003387269615 -4.99265425e-24)
(-0.00123402177 -0.001790944681 5.118539621e-24)
(-8.264057535e-05 -0.0002662347383 0)
(-0.0002534810655 0.002135818264 -1.260917256e-25)
(-0.00297358816 0.005976446684 1.082661443e-24)
(-0.007209581541 0.008720049491 -8.568216104e-24)
(-0.01217986762 0.01023608652 9.826517087e-26)
(-0.0172426952 0.01064021982 -9.653598014e-26)
(-0.02199898949 0.01009674906 6.652090907e-25)
(-0.02616019594 0.008771912963 -2.527504771e-23)
(-0.02952013431 0.006816575722 -2.123266154e-24)
(-0.03192216451 0.00436935039 -2.851454871e-23)
(-0.0332391883 0.001570286946 0)
(-0.0333685724 -0.001421337909 0)
(-0.03224088538 -0.00441117543 5.627446683e-23)
(-0.02984226866 -0.007159522977 6.08157087e-23)
(-0.02624607803 -0.009386145218 -4.473238465e-24)
(-0.02164644229 -0.01079203475 1.543214416e-22)
(-0.01638578725 -0.01110425232 3.178543597e-22)
(-0.01096137075 -0.01014401433 3.1373755e-22)
(-0.005990872815 -0.007913427988 9.785575025e-24)
(-0.002150184602 -0.004690919718 -4.890077594e-24)
(-0.0001625915896 -0.001208557624 0)
(-0.0002678985148 0.004053029628 -3.590788032e-24)
(-0.003823335668 0.01056783761 -8.418872785e-25)
(-0.0092952128 0.0149203517 8.398789176e-24)
(-0.01571701572 0.01718457583 0)
(-0.0222782332 0.01764545323 0)
(-0.02847910347 0.01661587761 0)
(-0.03395238888 0.01438100608 -9.311770591e-25)
(-0.03842935205 0.0111800234 1.684256945e-23)
(-0.04169890718 0.007217557075 0)
(-0.04358288284 0.002691842091 8.353667822e-24)
(-0.04393035218 -0.002170359639 7.609103917e-25)
(-0.04262912043 -0.007082300273 -7.630426689e-25)
(-0.03963694992 -0.01167305267 0)
(-0.03502628849 -0.01549013101 1.392510587e-22)
(-0.02903196308 -0.01802962655 -1.498685212e-22)
(-0.02209288638 -0.01880832263 -1.638335839e-22)
(-0.01486493454 -0.01747913968 -3.184314622e-22)
(-0.008175663942 -0.01397958889 3.162401233e-25)
(-0.002964685658 -0.008680983974 -2.825807796e-22)
(-0.0002048398365 -0.002569109457 0)
(-0.000262963988 0.006413438914 3.637238013e-24)
(-0.004581869624 0.01614145023 5.955510715e-25)
(-0.01120669967 0.02239058977 -5.819472548e-25)
(-0.01899931911 0.02551799431 0)
(-0.02699753545 0.02604028807 2.064829907e-25)
(-0.03461600529 0.02445608385 -2.036189177e-25)
(-0.04142442134 0.02118748982 -1.167725075e-24)
(-0.04710216291 0.01656623752 -2.497402716e-23)
(-0.05138619059 0.01085810625 -9.674051958e-24)
(-0.05403959714 0.004310896613 -8.363394697e-24)
(-0.05484471131 -0.002787165657 0)
(-0.05361588472 -0.01005475911 1.767184265e-24)
(-0.05024203491 -0.01696889733 6.330229488e-23)
(-0.04475056671 -0.02286225884 -1.480411135e-22)
(-0.0373780216 -0.02695844334 9.476648832e-24)
(-0.02864153993 -0.02847772423 3.23094179e-22)
(-0.01937455266 -0.02681808431 -5.08147563e-24)
(-0.01067926369 -0.02179372672 0)
(-0.003859884748 -0.01386519326 6.892494468e-24)
(-0.0002361744748 -0.004352942859 2.250116923e-22)
(-0.0002586282801 0.009200900654 9.904456602e-23)
(-0.005335986737 0.02268484483 -5.6206893e-25)
(-0.01310879094 0.03114367496 0)
(-0.02228156194 0.03528260578 0)
(-0.0317511877 0.03591228072 -5.108598918e-23)
(-0.04086278027 0.03375543335 -3.822510586e-23)
(-0.04913978141 0.02938702415 1.318303454e-24)
(-0.05622236613 0.02322886608 9.286145257e-24)
(-0.06179931592 0.01559235832 8.834565912e-24)
(-0.06556559199 0.006752625612 4.883186537e-24)
(-0.06721253362 -0.002961858366 -8.71740543e-24)
(-0.06643596706 -0.01308967698 -2.210675396e-23)
(-0.06299295591 -0.02293945066 -2.333103413e-24)
(-0.05679435685 -0.03158104132 -1.413840551e-22)
(-0.04801022536 -0.03787186632 0)
(-0.0371982445 -0.0405992587 -1.693007916e-22)
(-0.02539241226 -0.03875356283 5.287883855e-24)
(-0.01407262213 -0.03191057229 0)
(-0.005087316428 -0.02060881041 2.797318816e-22)
(-0.0002887258501 -0.006662775308 -4.338538126e-22)
(-0.0002641441368 0.01243379979 -9.830178048e-23)
(-0.006142760421 0.03024301426 2.131987559e-22)
(-0.01511855546 0.04124759304 1.093747817e-22)
(-0.02574204544 0.04657654257 2.30133493e-24)
(-0.03677886525 0.0474021199 -4.379542873e-23)
(-0.04752514785 0.04471331412 4.019356453e-23)
(-0.0574808511 0.03925279411 -1.456851747e-24)
(-0.06626643513 0.03152288995 -1.320177054e-25)
(-0.07353258314 0.02185148386 1.218346596e-26)
(-0.07890058889 0.01049777271 -4.770048686e-24)
(-0.08194830949 -0.002219180143 8.058518121e-24)
(-0.08219430216 -0.01576989031 2.434939299e-23)
(-0.07917443498 -0.02932836438 -1.179666604e-23)
(-0.07257869196 -0.04165249558 2.186172901e-22)
(-0.06239521421 -0.05111190645 -4.77547878e-24)
(-0.04913826057 -0.05585548069 0)
(-0.03404153592 -0.05420579305 0)
(-0.01909200854 -0.04527325804 4.769802279e-24)
(-0.006969434234 -0.02961130311 -4.875509206e-24)
(-0.0003903150379 -0.009756760412 1.875925502e-23)
(-0.0002834193662 0.01615414185 0)
(-0.007034998693 0.03889674424 1.2779558e-22)
(-0.01730184112 0.05280326756 5.658409387e-23)
(-0.02947200078 0.05952278598 0)
(-0.04218918505 0.06067142668 9.26375573e-23)
(-0.05472721705 0.05755540569 0)
(-0.06659462131 0.05110201353 -6.09110775e-23)
(-0.07742330003 0.04187921552 2.303003955e-24)
(-0.08684994467 0.03018891275 0)
(-0.09443190925 0.01621042273 0)
(-0.09958726843 0.0001778160669 3.176027351e-25)
(-0.1016235825 -0.01740716481 8.862982061e-25)
(-0.09977545723 -0.03561466901 -9.185278037e-23)
(-0.09333915413 -0.05287535015 -1.337062353e-23)
(-0.08195196116 -0.06694022341 4.660308671e-24)
(-0.06592543997 -0.07503962728 -5.862271279e-24)
(-0.04662168459 -0.07441469853 5.954691637e-24)
(-0.02664885659 -0.06328153473 0)
(-0.009923876137 -0.04199734783 -1.835514785e-24)
(-0.000574663352 -0.01409107332 3.625514355e-22)
(-0.0003199035696 0.02041649601 0)
(-0.008031460213 0.04874138788 -8.781779705e-23)
(-0.01968202606 0.06591289507 -4.189646396e-22)
(-0.03347739351 0.07422570185 -2.400510564e-22)
(-0.04794708158 0.07584697181 0)
(-0.06237530067 0.07246640073 2.173191834e-22)
(-0.07632071968 0.06521932097 5.368945259e-23)
(-0.08947026665 0.05472266215 -1.804346031e-24)
(-0.1014845781 0.04119878745 1.795419054e-24)
(-0.1118803113 0.02466020447 0)
(-0.1199437743 0.005141923867 5.068373826e-24)
(-0.1247132152 -0.01703172068 -5.061074476e-25)
(-0.1250125385 -0.04091755811 3.864199147e-23)
(-0.1196135889 -0.06466591062 -5.973932448e-23)
(-0.1075760649 -0.08530809476 1.339225377e-22)
(-0.08874842727 -0.09882878384 0)
(-0.06440874368 -0.1007956352 0)
(-0.03778059656 -0.08777989824 0)
(-0.01448634807 -0.05939661779 0)
(-0.000890983389 -0.02038161398 -1.70717425e-22)
(-0.0003805617831 0.02528515822 0)
(-0.009153255981 0.05987136769 -2.385864502e-22)
(-0.02226079105 0.08064697001 5.979504711e-22)
(-0.03769505248 0.09071757212 2.310427341e-22)
(-0.0538748869 0.09294470016 0)
(-0.07013232111 0.08948955873 -2.046356036e-22)
(-0.08612452995 0.08173035419 -1.493146163e-23)
(-0.1016472968 0.07032028227 1.452461966e-22)
(-0.1164409421 0.05534482212 6.746588786e-23)
(-0.1300348497 0.03654601459 -1.335603969e-23)
(-0.1416219063 0.01360900822 7.501856651e-24)
(-0.1499907597 -0.01347997012 -8.029438447e-25)
(-0.1535258688 -0.04397419723 4.732956911e-23)
(-0.1503626222 -0.07588635695 0)
(-0.1387654392 -0.1055269163 -1.339869219e-22)
(-0.1177747768 -0.1273532984 -6.179489115e-24)
(-0.08816050002 -0.1345439103 6.271575861e-24)
(-0.05345363902 -0.1208534663 -2.485762139e-22)
(-0.02130995574 -0.08395887663 6.33727799e-24)
(-0.001417986862 -0.02968008947 0)
(-0.0004820028637 0.0308448781 0)
(-0.01045204285 0.07237710003 0)
(-0.02505584566 0.09701444641 -3.361837939e-22)
(-0.04202838586 0.1088965537 -1.237060464e-23)
(-0.05967393456 0.1117724317 1.183035195e-23)
(-0.0774127636 0.1083892785 -1.169063271e-23)
(-0.09504881173 0.1004177844 -1.103875702e-23)
(-0.1125412385 0.08854629701 -1.30522216e-22)
(-0.1297748334 0.07267755918 3.85257275e-23)
(-0.146372886 0.05218895424 1.478779309e-23)
(-0.1615327719 0.02626586072 -1.259090713e-23)
(-0.1738969461 -0.005656014505 0)
(-0.1815101881 -0.04329089138 2.274028607e-23)
(-0.1819102763 -0.08477937518 0)
(-0.1724542668 -0.1259122373 -3.038677394e-23)
(-0.1510260821 -0.1595601854 -7.419478008e-23)
(-0.1172381174 -0.1758797788 0)
(-0.07410939411 -0.1642637281 2.421730498e-22)
(-0.0311045451 -0.1181964044 -2.496862618e-22)
(-0.002287805622 -0.04345267753 1.205683407e-22)
(-0.0006623060823 0.0372354805 0)
(-0.01205914493 0.08636254209 6.414738456e-22)
(-0.02816334611 0.1149393869 -1.673340115e-23)
(-0.04640956162 0.1284576885 6.239207607e-22)
(-0.06497773125 0.1318149281 -1.623361284e-23)
(-0.08342374046 0.1284846135 1.598782049e-23)
(-0.1017404206 0.1204915141 -1.584184252e-23)
(-0.1200934883 0.1085743933 -7.922302181e-24)
(-0.1385724882 0.09243671511 -2.456144859e-22)
(-0.1569935762 0.07103879032 -3.922650932e-24)
(-0.174715514 0.04296155604 3.656671986e-24)
(-0.1904687914 0.006908230447 1.404619755e-22)
(-0.2022299916 -0.03758361563 -2.005985822e-22)
(-0.2072103965 -0.08916490944 0)
(-0.2020131342 -0.1435932007 1.806412042e-22)
(-0.1831787178 -0.1925369774 6.880355252e-23)
(-0.148421573 -0.2229651628 3.056740351e-24)
(-0.09884551944 -0.218368453 0)
(-0.04442412864 -0.1644755608 2.469725795e-22)
(-0.003721521676 -0.06362740294 -1.179796024e-22)
(-0.001005109994 0.04473022425 1.087343257e-23)
(-0.01426881893 0.101994009 -6.122735953e-22)
(-0.03184858755 0.1342465205 -8.403707832e-22)
(-0.05088150793 0.1488206836 -5.85776149e-22)
(-0.06942609047 0.152116454 0)
(-0.08725003613 0.1484895402 2.131278151e-23)
(-0.104576092 0.1403788952 -4.278188079e-23)
(-0.1218029879 0.1286028332 3.262340544e-23)
(-0.1392678973 0.1126938132 1.4791103e-22)
(-0.157078522 0.09122191836 -5.707867889e-24)
(-0.1749493678 0.06216468687 0)
(-0.1920211271 0.02342057335 -1.508662901e-22)
(-0.2066462932 -0.0264299703 3.437546584e-22)
(-0.2162690644 -0.08699707563 4.271895386e-22)
(-0.2172580706 -0.1547654614 -1.479530222e-22)
(-0.2050132442 -0.221195453 1.685686583e-22)
(-0.1748597508 -0.2708364835 -6.517843437e-24)
(-0.1242752397 -0.2805602207 6.622400474e-24)
(-0.06113446347 -0.2239214991 -5.073633607e-22)
(-0.006060103534 -0.09251420286 0)
(-0.001686877106 0.05388772585 -1.400640813e-23)
(-0.01767111816 0.1195704262 -1.011744008e-21)
(-0.03664967391 0.1546216033 7.960907305e-22)
(-0.05565269148 0.1690227691 5.089632223e-22)
(-0.07268839667 0.1711531842 4.446068448e-22)
(-0.08789850386 0.1663923064 4.708637207e-22)
(-0.101804616 0.1576204567 -2.788345698e-23)
(-0.1150615846 0.1457604347 -2.234823349e-22)
(-0.1282756259 0.1302452356 1.332226022e-22)
(-0.1419148871 0.10937879 0)
(-0.156216813 0.0806865914 0)
(-0.1710491121 0.04138259675 1.60054815e-22)
(-0.1856319357 -0.01092909311 9.688288999e-23)
(-0.1983730157 -0.07728693459 -7.378444844e-23)
(-0.206287559 -0.1556577142 -2.868632269e-23)
(-0.2044388665 -0.2388754954 1.571781151e-22)
(-0.1860135428 -0.3110906525 -6.713542957e-23)
(-0.1435338232 -0.3437404218 -2.240523945e-22)
(-0.07943242478 -0.294594071 5.066685152e-22)
(-0.009732224806 -0.1324221963 -8.799643461e-22)
(-0.00307875118 0.06585919061 0)
(-0.02334443767 0.1396402927 1.67139636e-21)
(-0.04340316231 0.1755443323 0)
(-0.06093796988 0.1875745093 -1.062832472e-21)
(-0.07416967929 0.1867097718 8.752225334e-23)
(-0.0839673692 0.1794173713 -4.383914691e-22)
(-0.09130090967 0.1689572243 -3.480674466e-22)
(-0.09713179789 0.1563342644 5.622288324e-22)
(-0.1023416841 0.1409581554 -1.155820518e-22)
(-0.1077658972 0.1210504845 0)
(-0.1142102266 0.09395736968 0)
(-0.1224064278 0.05651257661 3.784524932e-23)
(-0.1328997936 0.005569220429 -3.692118455e-22)
(-0.1455648477 -0.06128673367 -2.591048962e-22)
(-0.1589919378 -0.1442540886 3.349291168e-22)
(-0.1694346708 -0.2392479522 -3.326325659e-22)
(-0.1693690429 -0.3331509462 -1.648170289e-23)
(-0.1463087893 -0.3958653004 2.472556096e-22)
(-0.09465645104 -0.3691910597 6.539938434e-22)
(-0.01505784223 -0.1847065634 8.78305448e-22)
(-0.005869641012 0.08277013941 0)
(-0.03299780097 0.1626988665 1.672837463e-22)
(-0.05283499696 0.1956303021 -4.123845784e-23)
(-0.06602491249 0.201774939 6.215153865e-22)
(-0.07168136264 0.1953724322 -5.589514625e-22)
(-0.07209318252 0.1837943343 3.739586578e-23)
(-0.06895129392 0.1704227741 -1.04099684e-22)
(-0.06361358238 0.1562029412 -2.366242961e-22)
(-0.05722296126 0.1405300681 1.534233003e-22)
(-0.05090429238 0.1216989112 0)
(-0.04591812934 0.09717175534 0)
(-0.04374231648 0.06381510601 -1.983001796e-22)
(-0.04607695603 0.01821765625 0)
(-0.05453140531 -0.0428706839 -4.42808138e-22)
(-0.07005163584 -0.1219269495 3.833664273e-23)
(-0.09151176737 -0.2190471879 1.786829546e-23)
(-0.113409896 -0.3272685166 6.21743398e-23)
(-0.120192425 -0.4214803691 1.035579807e-23)
(-0.09855074508 -0.4333693838 -6.768586679e-22)
(-0.02165193049 -0.2476366668 0)
(-0.01141621552 0.1093256101 0)
(-0.04838315584 0.1894347802 -7.581474832e-22)
(-0.06297007026 0.2122095428 -4.981493454e-22)
(-0.06525605072 0.2071393002 4.246910711e-22)
(-0.0566354214 0.1921123182 -2.14751344e-24)
(-0.04184659375 0.1746418537 -4.062754802e-23)
(-0.02352500621 0.157583278 4.708086804e-22)
(-0.003394862985 0.1414491543 -2.168230029e-23)
(0.017285938 0.1254734416 -1.523353327e-22)
(0.03732543066 0.1080602581 2.42870736e-23)
(0.05530518214 0.08698469447 -2.652695576e-23)
(0.06938137501 0.05952121671 -2.91413789e-23)
(0.07712876974 0.02258889333 2.620344013e-22)
(0.07566582993 -0.02719351554 4.950181664e-22)
(0.06183004983 -0.09343768265 -4.259011864e-22)
(0.03335108695 -0.1800226955 -1.657891607e-22)
(-0.009377076025 -0.2881984802 1.242125925e-22)
(-0.05186704194 -0.4052292918 6.966414004e-23)
(-0.07883840943 -0.4665977187 1.825094057e-21)
(-0.026549526 -0.314153728 2.845376151e-21)
(-0.01969553402 0.1489198372 -4.113281131e-23)
(-0.06612042136 0.2118418183 4.138750565e-23)
(-0.05824668638 0.2130258005 9.47325731e-22)
(-0.03490131378 0.1911663412 1.347915741e-23)
(-0.0009183426488 0.1663896351 0)
(0.03638453343 0.1439315617 4.044084445e-23)
(0.07414770794 0.1247808446 -2.00339009e-22)
(0.1109753545 0.1084263455 -7.80817808e-23)
(0.1460681977 0.09373280734 3.055006841e-23)
(0.1786552478 0.07920308391 -1.274782953e-23)
(0.207621589 0.06304400745 2.655835944e-23)
(0.2312708741 0.04318684724 -5.37161295e-23)
(0.2470174548 0.01731109481 -7.07537985e-23)
(0.2515578224 -0.01729925297 1.368391306e-22)
(0.2404232292 -0.06388778345 0)
(0.2088380041 -0.127872915 1.594658156e-22)
(0.1509951701 -0.2173511061 2.206452218e-22)
(0.07445735624 -0.3374604734 0)
(-0.0182319044 -0.4472937824 -3.503810402e-21)
(-0.02090674284 -0.3709905137 -2.785121105e-21)
(-0.02523568295 0.2300944093 -9.366214189e-22)
(-0.03811368346 0.2262834932 -1.348234582e-22)
(0.03733811514 0.1811361033 -2.224793094e-22)
(0.1059798285 0.1421515289 -1.113324822e-22)
(0.1727872811 0.1117279196 -4.391859156e-23)
(0.2328044147 0.08915863055 9.840712885e-23)
(0.2860841946 0.07244727423 -1.336626905e-22)
(0.3333778818 0.05968100287 1.140519807e-22)
(0.3753741984 0.04931553036 -7.110133393e-23)
(0.4123488199 0.04002186975 2.434731773e-25)
(0.4439467033 0.03053875665 1.244035361e-23)
(0.46905747 0.0195966069 6.527701808e-23)
(0.485431383 0.005870424536 -1.54572448e-22)
(0.4902660311 -0.01199439708 -1.448404535e-22)
(0.4788327865 -0.03622807029 -4.169181017e-23)
(0.4458780372 -0.07106073908 0)
(0.3808192613 -0.1255151447 -1.473450611e-22)
(0.2814944097 -0.2197485455 7.648032255e-22)
(0.1135995593 -0.3515801672 1.553200037e-21)
(0.02523125363 -0.3764831477 2.130726524e-21)
(0.2149077759 0.1353326409 9.702491445e-22)
(0.2799339821 0.09965242088 0)
(0.4348428315 0.05869497775 -2.560356283e-22)
(0.5330074067 0.03854616153 -1.780239554e-22)
(0.6019924982 0.02584591566 0)
(0.6540063181 0.01762131044 -6.150299763e-23)
(0.6944635348 0.01233947296 6.097262039e-23)
(0.7267226157 0.008860154351 -1.546743845e-23)
(0.7529424252 0.006419377097 2.467053995e-23)
(0.7742827793 0.004503630871 1.885119869e-23)
(0.7910731614 0.002723945449 0)
(0.8029491508 0.0007723274322 -2.351595212e-23)
(0.8088059861 -0.00166207872 0)
(0.8068635912 -0.004566807534 2.465026291e-23)
(0.79339612 -0.008624577009 1.604699142e-23)
(0.7653685502 -0.01441880881 -5.25337599e-23)
(0.710012463 -0.02491824929 -2.282005632e-22)
(0.6235190326 -0.04230630199 -6.521428971e-22)
(0.4227667521 -0.09221905051 0)
(0.2704161948 -0.1526084533 -2.078575571e-21)
)


// ************************************************************************* //
