/*--------------------------------*- C++ -*----------------------------------*\
  =========                 |
  \\      /  F ield         | OpenFOAM: The Open Source CFD Toolbox
   \\    /   O peration     | Website:  https://openfoam.org
    \\  /    A nd           | Version:  13
     \\/     M anipulation  |
\*---------------------------------------------------------------------------*/
FoamFile
{
    format      ascii;
    class       vectorField;
    location    "41.72";
    object      U_all;
}
// * * * * * * * * * * * * * * * * * * * * * * * * * * * * * * * * * * * * * //


400
(
(1.10049686e-05 -3.783252115e-05 0)
(-0.0006660960946 0.000413042233 -1.551220821e-23)
(-0.002185374366 0.0009203931292 0)
(-0.004047833164 0.001312781578 0)
(-0.005971869316 0.001535068046 6.845549497e-25)
(-0.007762783228 0.001569849916 4.150874956e-24)
(-0.009284543261 0.001423563069 -7.373261867e-24)
(-0.01043593876 0.001119719747 7.530851675e-24)
(-0.01113681335 0.0006960782111 -2.095381207e-25)
(-0.01132711322 0.0002030752612 -3.994662851e-24)
(-0.01097177597 -0.0003002328146 5.803628741e-24)
(-0.01007233068 -0.0007475137811 -5.929588802e-23)
(-0.00867988084 -0.001075560327 -6.552719709e-23)
(-0.006902851792 -0.001233043569 -7.784334749e-23)
(-0.004910736251 -0.001192639136 4.573597215e-24)
(-0.00292723105 -0.0009619213713 -4.137938339e-24)
(-0.001205300051 -0.0005912119489 -1.998758508e-22)
(-1.907059685e-05 -0.0001698822478 0)
(0.0005181520336 0.000172086956 1.509611185e-25)
(0.0002227507263 0.0003059793401 -2.553022379e-24)
(-0.0002633635736 0.0008289693461 1.383039991e-25)
(-0.002703305673 0.003383841884 1.561016624e-23)
(-0.006907275456 0.005604499949 1.555217434e-25)
(-0.01195231783 0.007008206203 -8.495517126e-25)
(-0.01713504477 0.007553777027 1.162153989e-24)
(-0.02197535746 0.00729420299 1.306887809e-23)
(-0.02611076409 0.006321897193 1.388375053e-24)
(-0.02926564782 0.004754193277 -7.282568462e-24)
(-0.03122672749 0.00273714914 1.015279375e-23)
(-0.03184200648 0.0004524027503 4.510010096e-24)
(-0.03102761299 -0.001884145626 -6.318902152e-24)
(-0.02879316753 -0.004023028168 2.961701761e-24)
(-0.02527138624 -0.005708352171 3.89555219e-23)
(-0.02073195074 -0.006707407766 -1.954775983e-24)
(-0.01558962654 -0.006854139631 3.754494615e-24)
(-0.01038513327 -0.006097464546 -9.741018652e-23)
(-0.005730272231 -0.004546186584 9.637692057e-23)
(-0.002233368476 -0.002507418308 -3.961242669e-25)
(-0.0001817782136 -0.0005023710518 4.061145932e-25)
(8.34334661e-05 0.0006099265383 0)
(-0.0004188236551 0.002935079922 -2.910462663e-25)
(-0.004647875812 0.008804017131 1.702119562e-23)
(-0.01137196141 0.01324042491 -8.282894175e-24)
(-0.01932729028 0.0157920394 -2.075325233e-25)
(-0.02747411539 0.01652999754 2.038790363e-25)
(-0.03511778734 0.01564441566 6.819160707e-27)
(-0.04171344881 0.01335997811 -1.22086836e-24)
(-0.0468357187 0.009919775055 -4.55148413e-25)
(-0.05014989022 0.005602436492 -1.063100061e-23)
(-0.05141231855 0.0007444214752 0)
(-0.05047793146 -0.004241781825 0)
(-0.04733706223 -0.008887189011 2.671021386e-23)
(-0.04215927911 -0.01268177041 2.813031497e-23)
(-0.03531437435 -0.01513605115 -1.646171959e-24)
(-0.02738996226 -0.01586189396 4.84589435e-23)
(-0.0191700584 -0.01467333996 9.419320387e-23)
(-0.01156090772 -0.01169360256 3.975737619e-23)
(-0.005465413802 -0.007450742298 4.142010273e-25)
(-0.001451102278 -0.00293604305 1.073694426e-25)
(-9.07288917e-05 0.0002258779098 0)
(-0.0005024625232 0.006045349364 -4.24896747e-23)
(-0.00640273992 0.01637075652 -1.692342768e-23)
(-0.01553502651 0.02355933852 8.209735035e-24)
(-0.02627912244 0.02744162816 0)
(-0.03728746779 0.02832102132 0)
(-0.04769037327 0.02658772293 0)
(-0.05679662823 0.02263120106 -4.467882269e-26)
(-0.06405383917 0.01683609253 -2.136574782e-24)
(-0.06901081511 0.009622185384 0)
(-0.07130827994 0.001491052291 1.635452766e-24)
(-0.07070853673 -0.006936502797 2.802784363e-25)
(-0.06713039496 -0.01493018881 -2.810632094e-25)
(-0.0606990558 -0.02166728283 0)
(-0.05180750414 -0.02631605867 4.133306239e-23)
(-0.04114991524 -0.02816070916 -4.68160623e-23)
(-0.02971970135 -0.02677372228 -2.761968174e-23)
(-0.0187371673 -0.02221530518 -3.960884143e-23)
(-0.00948803022 -0.01521922213 7.795895724e-25)
(-0.002976882046 -0.007298194662 9.790278247e-23)
(-0.0002318807465 -0.0008661673364 0)
(-0.0005316120307 0.01009501523 4.269628835e-23)
(-0.007983591342 0.02595219371 4.785207463e-25)
(-0.01939687485 0.03642882874 -4.67591489e-25)
(-0.03282382628 0.04185520959 0)
(-0.04664689208 0.042894855 7.782743752e-25)
(-0.05985229738 0.04020074151 -7.674833178e-25)
(-0.07163291255 0.03434741599 3.672227352e-23)
(-0.08132751029 0.02585663945 1.848155078e-23)
(-0.08836600924 0.01527298271 6.238726187e-24)
(-0.09225469551 0.0032461472 -1.637358091e-24)
(-0.09260379925 -0.009407831578 0)
(-0.08917555644 -0.02167477958 4.370665428e-25)
(-0.08195979259 -0.03236745085 1.009027791e-23)
(-0.07126885289 -0.04021250266 -4.349340384e-23)
(-0.05782018591 -0.04402046525 1.932920331e-24)
(-0.04278582806 -0.04294829565 4.217332641e-23)
(-0.02775450327 -0.0368334711 -3.841866472e-25)
(-0.0145506242 -0.02652721102 0)
(-0.004859463349 -0.01408454532 5.43653678e-23)
(-0.0003641486665 -0.002846953163 -2.565068283e-22)
(-0.0005272208459 0.01499927832 9.841416207e-23)
(-0.009377924673 0.03739022178 -4.907670113e-25)
(-0.02288182641 0.05170222847 0)
(-0.03883043513 0.05894183086 0)
(-0.05538656902 0.06025574729 -8.73206637e-23)
(-0.07142876824 0.05661901215 -8.499034502e-23)
(-0.08606654182 0.04880168854 -4.067476691e-23)
(-0.0985508588 0.03743980486 -1.50434006e-23)
(-0.1081945296 0.0231598388 -5.368782534e-24)
(-0.1143444724 0.006709678679 -8.174925105e-24)
(-0.1164046217 -0.01093292136 6.601055349e-24)
(-0.1138937416 -0.02848944969 8.826576785e-24)
(-0.1065486988 -0.0443704619 -1.892319212e-23)
(-0.09446803974 -0.05675333775 4.607114902e-24)
(-0.07826856706 -0.06378298774 0)
(-0.05922895246 -0.06393495595 -1.572917883e-23)
(-0.03933981816 -0.05653816448 -2.427533553e-26)
(-0.0211418881 -0.0423580922 0)
(-0.007318702863 -0.02398229442 -1.520637789e-22)
(-0.0005216164889 -0.00592554499 6.056250721e-22)
(-0.0004990830153 0.02064574692 -9.774369333e-23)
(-0.01052951075 0.0504543828 2.83197265e-22)
(-0.02582957411 0.06912511659 1.526855326e-22)
(-0.04402138259 0.07849257792 3.619265244e-24)
(-0.06310739189 0.0802947632 -7.319350028e-23)
(-0.0819040514 0.07588042892 9.043486971e-23)
(-0.09947763685 0.06621690715 -3.590199744e-24)
(-0.1150227367 0.05201695072 -1.729162851e-24)
(-0.1277519164 0.0339235847 2.524149919e-24)
(-0.136847259 0.01270233175 7.382563647e-24)
(-0.1414710521 -0.01058782296 -6.500806483e-24)
(-0.1408248188 -0.03446024273 -9.787987765e-24)
(-0.1342745974 -0.05692771567 -3.261735295e-23)
(-0.1215450237 -0.07553316086 -3.661409004e-23)
(-0.1029672645 -0.08754260489 5.645789232e-25)
(-0.07976369747 -0.09039209654 0)
(-0.0542668237 -0.08244513753 0)
(-0.0298716088 -0.06397736845 -2.906050104e-24)
(-0.0106628512 -0.03798794698 2.97049901e-24)
(-0.0007350936272 -0.01050089482 1.027873094e-22)
(-0.0004479170452 0.02687251072 0)
(-0.01134923304 0.06480757627 2.001983295e-22)
(-0.02801599755 0.08829617308 8.962060791e-23)
(-0.04799857387 0.1001234942 0)
(-0.06920602024 0.1027076541 1.569879602e-22)
(-0.09044373212 0.09781578485 0)
(-0.1107831679 0.08661102942 -1.428387041e-22)
(-0.1294093758 0.0698395032 6.515550858e-24)
(-0.145477163 0.04808232198 0)
(-0.1580351813 0.02201755607 0)
(-0.1660133463 -0.007334438978 -1.374408827e-24)
(-0.168267157 -0.03838839592 -9.316749646e-25)
(-0.163706471 -0.0688397565 1.491976834e-22)
(-0.1515208769 -0.09558275511 -4.70463432e-23)
(-0.1315134555 -0.1148298635 -2.560960834e-24)
(-0.104559607 -0.1225703393 1.534717772e-24)
(-0.07309349828 -0.1155517952 -1.558926843e-24)
(-0.04135021442 -0.0928311547 0)
(-0.01525230258 -0.05740767578 3.203806987e-24)
(-0.001044309114 -0.0171471445 -1.012912827e-21)
(-0.000374466014 0.03346304347 0)
(-0.01175006006 0.07998918638 -1.128287614e-22)
(-0.02920707977 0.1086390944 -6.191144294e-22)
(-0.05031745129 0.1232233992 -3.755304247e-22)
(-0.07296317561 0.1269097029 0)
(-0.09598960268 0.1219255627 4.119453874e-22)
(-0.1185273483 0.1096348628 1.260923844e-22)
(-0.1398146415 0.09078245747 -5.58183208e-24)
(-0.1590221548 0.06581393088 5.554205011e-24)
(-0.1751461009 0.03520881085 0)
(-0.1869559999 -0.0001967465708 2.912129705e-23)
(-0.1930172669 -0.03889754203 4.695836221e-24)
(-0.1917809934 -0.07843888322 -1.076807566e-22)
(-0.1817874452 -0.1151865353 8.004197448e-23)
(-0.1620570446 -0.1442599439 -2.419744161e-22)
(-0.1327062006 -0.1598548606 0)
(-0.09577888175 -0.1563112868 0)
(-0.05601633058 -0.130298107 0)
(-0.02147859141 -0.08381135023 0)
(-0.001500384703 -0.02665516252 5.572110541e-22)
(-0.000287389248 0.04016077663 0)
(-0.01169359512 0.09543611339 -3.493013921e-22)
(-0.02924438243 0.1294073616 8.932795294e-22)
(-0.05060947345 0.1469299164 3.617176633e-22)
(-0.07370082776 0.151974867 0)
(-0.09745151233 0.1472757955 -3.86255186e-22)
(-0.1211069838 0.1344191939 -3.174428668e-23)
(-0.1440324778 0.1141393306 3.333103925e-22)
(-0.1655143226 0.086700065 1.769474318e-22)
(-0.1846248518 0.05229123416 -4.060151323e-23)
(-0.2001325816 0.01141716171 1.656821733e-23)
(-0.2104622454 -0.03471424099 -8.265246523e-24)
(-0.2137208542 -0.08376563495 3.371857844e-22)
(-0.207821551 -0.1318756332 0)
(-0.1908238543 -0.1732756119 2.420913187e-22)
(-0.1616335742 -0.2002593377 5.774770735e-24)
(-0.1211662693 -0.2040121692 -5.860889648e-24)
(-0.07384989815 -0.1772119942 1.548445728e-22)
(-0.02971786843 -0.1188642317 -5.435452944e-24)
(-0.002179545245 -0.04005398692 0)
(-0.0002117197366 0.04671640025 0)
(-0.01125001015 0.1105498114 0)
(-0.02815624353 0.149735499 -5.022754963e-22)
(-0.04874479294 0.1701517595 -1.880997275e-23)
(-0.07100086731 0.1766257143 2.038377901e-23)
(-0.09399451609 0.172452651 -2.014310408e-23)
(-0.1171434304 0.1594870984 -2.316882859e-23)
(-0.1400179498 0.1384805076 -3.029822574e-22)
(-0.1621328877 0.1095160705 6.698613687e-23)
(-0.1827959023 0.07245186854 4.513177043e-23)
(-0.2009835547 0.02734928752 -4.577719963e-23)
(-0.215227026 -0.02508697806 0)
(-0.2235562213 -0.08298351351 -7.839680389e-23)
(-0.2234632199 -0.1427257326 0)
(-0.2120679435 -0.1981820873 -3.73956184e-22)
(-0.1867434552 -0.2400773687 5.244953125e-22)
(-0.1464438306 -0.2560773403 0)
(-0.09394567749 -0.2331209497 -1.493991894e-22)
(-0.04022001008 -0.1639613653 1.937548325e-22)
(-0.003201100333 -0.05861063109 -3.411527823e-22)
(-0.0002015410745 0.05297585096 0)
(-0.01067261841 0.1248172383 9.182868675e-22)
(-0.02628446581 0.1687424573 -2.440685018e-23)
(-0.04501107783 0.1916455133 9.193338213e-22)
(-0.06494597583 0.199292105 -2.512086098e-23)
(-0.08536628676 0.1956104317 2.838843916e-23)
(-0.1059305661 0.1827886844 -2.812929978e-23)
(-0.1264924193 0.1616583508 -1.66091783e-23)
(-0.1468996845 0.1321762295 -5.260228689e-22)
(-0.1668458151 0.09389646539 -8.906627805e-24)
(-0.1857303018 0.04640576185 9.660195611e-24)
(-0.2024781681 -0.01023784848 3.313077735e-22)
(-0.2154154611 -0.07499820406 -5.820739993e-22)
(-0.2220209716 -0.1450311843 0)
(-0.2188032105 -0.2146760619 8.887323197e-22)
(-0.2016257526 -0.2740016422 -4.940885824e-22)
(-0.1668639194 -0.3075811954 -1.572222818e-23)
(-0.1140220095 -0.2953811908 0)
(-0.05288482023 -0.2195802574 -1.89018206e-22)
(-0.004749188169 -0.08377277933 3.360585634e-22)
(-0.0003641984742 0.05902317697 1.551010268e-23)
(-0.01049573893 0.1379881495 -8.76419636e-22)
(-0.02441389464 0.1856804094 -1.157059122e-21)
(-0.04026724416 0.2101384744 -8.62898717e-22)
(-0.05630729691 0.2182348906 0)
(-0.07214856692 0.2146190268 3.513805431e-23)
(-0.08779221768 0.2018791959 -7.294866764e-23)
(-0.1034562803 0.1810005615 5.867884729e-23)
(-0.1193983882 0.1518997246 3.021366747e-22)
(-0.1357931553 0.113915057 -1.128195761e-23)
(-0.1526082324 0.06621424928 0)
(-0.1694521378 0.008177203113 -3.603929794e-22)
(-0.1852760602 -0.06015987717 7.515668484e-22)
(-0.1980448523 -0.1372747011 8.831704252e-22)
(-0.204354627 -0.2189261886 -5.296627235e-22)
(-0.1990977618 -0.2959712909 5.162689473e-22)
(-0.1760605334 -0.3514072584 1.078232487e-23)
(-0.1300890633 -0.3584150779 -1.09554752e-23)
(-0.06688803309 -0.2843276506 -8.215350451e-23)
(-0.007083319916 -0.1169964415 0)
(-0.0009095772235 0.06540041464 -1.911486814e-23)
(-0.01167591639 0.15028164 -1.326965565e-21)
(-0.02388882003 0.2000659547 1.094237511e-21)
(-0.03601340418 0.2244216954 6.73493028e-22)
(-0.04657308814 0.2316588234 6.014632001e-22)
(-0.05577038621 0.2272393692 6.643957207e-22)
(-0.06411245883 0.2141774878 -4.45867774e-23)
(-0.07227561777 0.1936494389 -3.461337272e-22)
(-0.08096973073 0.1656028327 2.152162493e-22)
(-0.09087192427 0.1292707364 0)
(-0.1025547461 0.08353082547 0)
(-0.1163622163 0.02720010788 2.655396916e-22)
(-0.1321589564 -0.04062005949 8.194326158e-23)
(-0.1489252322 -0.12001283 -2.821623486e-22)
(-0.1641284286 -0.2089300681 -5.411271587e-23)
(-0.1727877625 -0.3006992496 1.301951842e-22)
(-0.167031131 -0.3793329091 -3.400503877e-22)
(-0.1365292442 -0.4136451959 -1.593859451e-23)
(-0.08018250146 -0.3538326194 8.204123084e-23)
(-0.01050762292 -0.1594130565 -6.032164219e-22)
(-0.002260497979 0.07348883471 0)
(-0.01580355587 0.162652176 2.145874549e-21)
(-0.02665042552 0.2117904721 0)
(-0.03422339649 0.2333947254 -1.35180793e-21)
(-0.03759398595 0.237776681 6.184053487e-23)
(-0.03799685389 0.2312553512 -6.193094822e-22)
(-0.0366826607 0.2171899007 -4.756284295e-22)
(-0.03489036537 0.1968934497 8.301254928e-22)
(-0.03378838135 0.1703342394 -1.885698083e-22)
(-0.03449876674 0.136722109 0)
(-0.0381157294 0.09479673781 0)
(-0.04564992632 0.04304286747 2.410616052e-23)
(-0.05790804478 -0.02013781069 -6.007198422e-22)
(-0.07514598706 -0.09620650058 -4.309566887e-22)
(-0.09645175138 -0.1855556158 4.637862277e-22)
(-0.118346263 -0.2853567758 -6.488734569e-22)
(-0.1332715393 -0.3838386521 9.119945911e-23)
(-0.1265350995 -0.4504358701 2.937345549e-23)
(-0.08899154107 -0.4198536364 5.660446556e-22)
(-0.01526917932 -0.2111719725 6.020796953e-22)
(-0.005180899253 0.08598045974 0)
(-0.02525550685 0.1766291184 1.465579468e-22)
(-0.0348340801 0.2205961539 -4.917144196e-23)
(-0.03640013951 0.2354859329 7.642930051e-22)
(-0.03018483148 0.2343406732 -7.005377494e-22)
(-0.01916579544 0.2241603867 4.746480491e-23)
(-0.005615151527 0.2083525836 -1.018609703e-22)
(0.008569606171 0.1881241087 -3.389888463e-22)
(0.0217988597 0.1633911276 2.062822652e-22)
(0.03262781234 0.1333242743 0)
(0.03958458313 0.09664086323 0)
(0.04117013033 0.05174056597 -2.902667554e-22)
(0.03578483633 -0.003255396284 0)
(0.02198184528 -0.07058360697 -5.512186691e-22)
(-0.001264847308 -0.1525735494 -1.492376903e-23)
(-0.03310469985 -0.2505949835 2.559739821e-23)
(-0.06909235904 -0.3599341505 2.203140789e-22)
(-0.09227827063 -0.4575424517 4.788101749e-24)
(-0.08718089948 -0.4698129404 -5.789415168e-22)
(-0.02103127152 -0.2698972289 0)
(-0.01111631543 0.1085974982 0)
(-0.04248901887 0.1947151678 -8.848478341e-22)
(-0.04795528996 0.2258195502 -5.411039201e-22)
(-0.03919536043 0.2282135542 4.54381617e-22)
(-0.01877830398 0.2182328119 -1.709983016e-24)
(0.007664312817 0.202822034 -4.561049107e-23)
(0.03667993268 0.1847619758 5.696681418e-22)
(0.06582998422 0.1647118209 -2.766890224e-23)
(0.09327130694 0.1423128177 -2.069781536e-22)
(0.1173891585 0.1166274942 3.142213285e-23)
(0.1365461664 0.08641143952 -3.425916925e-23)
(0.1489669245 0.05017669115 -3.690593885e-23)
(0.1525275761 0.006159167926 3.20563332e-22)
(0.1449367015 -0.04796126925 6.11960579e-22)
(0.1235159777 -0.1153052899 -5.101171086e-22)
(0.0863353331 -0.2004195641 -1.616057543e-22)
(0.03199089176 -0.3067806584 1.531308779e-22)
(-0.02362123242 -0.4239837138 7.293654332e-23)
(-0.0649241309 -0.4871612782 1.91329189e-21)
(-0.02509971709 -0.3291544738 2.954991776e-21)
(-0.02004680485 0.1460727417 -4.390207429e-23)
(-0.06416406319 0.2112955869 4.417380178e-23)
(-0.05070230666 0.2177300478 1.000188479e-21)
(-0.01934097437 0.201467998 -8.270562945e-24)
(0.02414464846 0.1809076171 0)
(0.07154121973 0.1606933338 4.363721714e-23)
(0.1190703396 0.1416495482 -2.273851702e-22)
(0.1644767319 0.1233181811 -9.027956137e-23)
(0.2062251143 0.1048117286 3.680734222e-23)
(0.2429643005 0.08507140034 -1.701654885e-23)
(0.2732207562 0.06296147658 3.429970232e-23)
(0.2952536094 0.03726293835 -6.592680844e-23)
(0.3066971048 0.006535068522 -9.303905509e-23)
(0.3049738303 -0.03087769999 1.517043997e-22)
(0.2863936241 -0.07786290921 0)
(0.2470568077 -0.1399300365 1.505610465e-22)
(0.1810922229 -0.2266299749 2.560014054e-22)
(0.09604450187 -0.3443894944 0)
(-0.006697616223 -0.4552210215 -3.675635282e-21)
(-0.01922408209 -0.3777537585 -2.892621239e-21)
(-0.02591951356 0.2276828812 -9.514204359e-22)
(-0.03998324777 0.223821654 -1.388976398e-22)
(0.03656136731 0.1810585365 -2.335581634e-22)
(0.1090503039 0.1451059091 -1.193742065e-22)
(0.1817191188 0.1172445491 -4.295825767e-23)
(0.2490090728 0.0962790756 9.783180605e-23)
(0.3100336698 0.08002510329 -1.408592107e-22)
(0.3646209327 0.06656815246 1.297175239e-22)
(0.4126252487 0.05449178812 -8.62012016e-23)
(0.4536250293 0.04270894866 1.132189473e-25)
(0.4867878718 0.03032298382 1.527741716e-23)
(0.5107451361 0.01652901841 7.997204798e-23)
(0.5236597454 0.0005365143263 -1.811123797e-22)
(0.5231798013 -0.01863373243 -1.617146135e-22)
(0.505232342 -0.04286478945 -4.262953041e-23)
(0.4658715081 -0.07633231173 0)
(0.3952696496 -0.1286089383 -1.846478094e-22)
(0.2916071046 -0.2208468097 8.148764112e-22)
(0.1197455104 -0.3525016902 1.631601699e-21)
(0.02670547253 -0.3775497978 2.17265597e-21)
(0.2142894467 0.1347447211 9.864989308e-22)
(0.2776311176 0.09870503589 0)
(0.4316592276 0.0581041488 -2.594320742e-22)
(0.5304749336 0.03846264965 -1.741666479e-22)
(0.6016965744 0.02623419103 0)
(0.6571198956 0.0183192345 -6.00909159e-23)
(0.7015213601 0.01313600815 6.378001153e-23)
(0.73760425 0.009542125999 -1.800156421e-23)
(0.7669368416 0.006804463278 2.885974017e-23)
(0.7902106685 0.004464743613 2.315033075e-23)
(0.8074555011 0.002221319627 0)
(0.8182621356 -0.0001500751403 -2.873032844e-23)
(0.8216499717 -0.002723848385 0)
(0.8162394199 -0.005712668694 2.738150445e-23)
(0.799133315 -0.00961138283 1.421691233e-23)
(0.7679986346 -0.01500255104 -5.799404456e-23)
(0.7106555755 -0.02502519952 -2.535661331e-22)
(0.623518398 -0.04204285406 -6.918102294e-22)
(0.423009102 -0.0918296808 0)
(0.2705674689 -0.1524021841 -2.119483833e-21)
)


// ************************************************************************* //
