/*--------------------------------*- C++ -*----------------------------------*\
  =========                 |
  \\      /  F ield         | OpenFOAM: The Open Source CFD Toolbox
   \\    /   O peration     | Website:  https://openfoam.org
    \\  /    A nd           | Version:  13
     \\/     M anipulation  |
\*---------------------------------------------------------------------------*/
FoamFile
{
    format      ascii;
    class       volScalarField;
    location    "9";
    object      p;
}
// * * * * * * * * * * * * * * * * * * * * * * * * * * * * * * * * * * * * * //

dimensions      [0 2 -2 0 0 0 0];

internalField   nonuniform List<scalar> 
100
(
-7.40206e-09
-0.000675849
-0.000775983
0.000139251
0.00215836
0.00515406
0.00850887
0.010949
0.0113626
0.0101988
0.000783085
9.89733e-06
-0.000202241
0.000437117
0.0020315
0.00461056
0.00769749
0.0100772
0.010461
0.00908328
0.000571972
-0.000440503
-0.000939666
-0.000729671
0.000401582
0.00279566
0.00620695
0.00927269
0.0100469
0.00837247
-0.00172434
-0.00301132
-0.00397617
-0.00445784
-0.00400551
-0.00173202
0.00257531
0.007468
0.00986562
0.00876273
-0.00685197
-0.00832594
-0.00993108
-0.0115668
-0.0124541
-0.0108645
-0.00552131
0.00255348
0.00897966
0.0111022
-0.0153275
-0.0166372
-0.0188853
-0.02217
-0.0253854
-0.0256879
-0.0199504
-0.0075276
0.00654182
0.016714
-0.0273057
-0.0274586
-0.0296199
-0.0344782
-0.040619
-0.0439163
-0.0386673
-0.0208878
0.00536049
0.0296485
-0.0432059
-0.0393886
-0.0389116
-0.0440208
-0.0522132
-0.057743
-0.0520663
-0.0263007
0.0192584
0.0683942
-0.0714296
-0.050637
-0.0418736
-0.0449794
-0.0532994
-0.0581972
-0.0481569
-0.00798715
0.0707032
0.174532
-0.152829
-0.0624615
-0.0342946
-0.0364708
-0.0450059
-0.0479594
-0.0311176
0.02983
0.156206
0.344136
)
;

boundaryField
{
    movingWall
    {
        type            zeroGradient;
    }
    fixedWalls
    {
        type            zeroGradient;
    }
    frontAndBack
    {
        type            empty;
    }
}


// ************************************************************************* //
