/*--------------------------------*- C++ -*----------------------------------*\
  =========                 |
  \\      /  F ield         | OpenFOAM: The Open Source CFD Toolbox
   \\    /   O peration     | Website:  https://openfoam.org
    \\  /    A nd           | Version:  13
     \\/     M anipulation  |
\*---------------------------------------------------------------------------*/
FoamFile
{
    format      ascii;
    class       scalarField;
    location    "25.73";
    object      p_all;
}
// * * * * * * * * * * * * * * * * * * * * * * * * * * * * * * * * * * * * * //


400
(
9.460388047e-07
-0.0005463901872
-0.0008884202518
-0.001015894941
-0.0009370191595
-0.0006841334383
-0.0002948162335
0.0001949219432
0.0007485475771
0.001325588842
0.001880428049
0.002360216183
0.002709553939
0.002875333897
0.002816014891
0.002513605451
0.001988582988
0.001298090307
0.0006391922525
4.33107509e-05
0.0005892072096
7.942303291e-06
-0.0003557665361
-0.0004980791476
-0.0004674250297
-0.0002903537734
3.769997929e-06
0.0003856533868
0.0008238653993
0.001281121487
0.001717580757
0.002082103406
0.002324335437
0.002396918168
0.002265974197
0.001922718662
0.001393892727
0.0007445520488
0.0001469282296
-0.0005157470457
0.0009534326133
0.00030905408
-9.216681948e-05
-0.0002384638909
-0.0002323223527
-0.0001038185507
0.0001230215557
0.0004269253748
0.000784163769
0.001162719776
0.00153076975
0.001834189329
0.002023052092
0.002048647992
0.001875849279
0.001494836645
0.000929581311
0.0002366356526
-0.0004618108889
-0.001298765106
0.0009771371835
0.0002589934412
-0.0001912367417
-0.0003435016222
-0.0003527233861
-0.0002557078701
-7.309917642e-05
0.0001825156622
0.0004976062011
0.0008519390897
0.001204324473
0.001511831326
0.001713656585
0.001749271026
0.001569813599
0.001151902829
0.0005073586695
-0.0003170870696
-0.001232388026
-0.002383151667
0.0004814875017
-0.0002839626615
-0.0007628520499
-0.0009145378629
-0.0009355293087
-0.0008670564399
-0.000724102699
-0.0005071308678
-0.000215857129
0.0001404771744
0.000531444306
0.0009087733698
0.001201238351
0.001327950996
0.001212498384
0.000801688017
8.147335047e-05
-0.0009160852237
-0.00212603035
-0.00365448299
-0.0006853292121
-0.001466067446
-0.001955085654
-0.002106119726
-0.002148869156
-0.002125473095
-0.002041032776
-0.001878350104
-0.001616184397
-0.001244112791
-0.0007776711249
-0.0002613928536
0.0002221047478
0.0005629926615
0.0006393596396
0.0003430749592
-0.0003914552742
-0.001562454634
-0.003133194103
-0.005140373382
-0.002660725047
-0.00342240302
-0.003914228392
-0.004079568582
-0.004176891156
-0.004245888137
-0.004276838913
-0.004227710407
-0.004046038028
-0.003688030634
-0.003139142889
-0.002425128785
-0.001631882347
-0.0009018172449
-0.0004232118221
-0.0003970742992
-0.0009866064117
-0.002258915719
-0.004231028266
-0.006826541729
-0.005553801248
-0.006268713163
-0.006766965836
-0.006980861707
-0.007194181733
-0.00744199773
-0.007695614711
-0.007880589868
-0.007900472069
-0.007658845964
-0.007085537176
-0.006157665562
-0.004941929516
-0.003603081472
-0.002412187911
-0.001712801417
-0.001841501062
-0.003013301633
-0.005366694257
-0.008660421149
-0.009433872705
-0.01008020558
-0.01059704867
-0.01090923372
-0.01132454845
-0.01187432194
-0.01250957844
-0.01311783528
-0.01354588948
-0.01362137636
-0.01318044519
-0.01211907717
-0.0104260083
-0.008254599209
-0.00595444931
-0.004060103635
-0.003188425252
-0.00384134582
-0.006424716039
-0.01048984121
-0.01431547972
-0.01487447295
-0.01542143716
-0.01588062086
-0.0165883568
-0.01757835418
-0.0187850643
-0.02005704777
-0.02117540492
-0.02187135869
-0.0218550767
-0.02086994672
-0.01876964243
-0.01561789855
-0.01179298654
-0.008035374621
-0.005358042495
-0.004758367787
-0.007179393759
-0.01197742754
-0.02015282292
-0.0206030641
-0.0211732276
-0.02179516365
-0.022850405
-0.02438851009
-0.02633720603
-0.0285114201
-0.03062521106
-0.03230103241
-0.03309272426
-0.03253816442
-0.03027999055
-0.02617629047
-0.02052262714
-0.01420181932
-0.008689585141
-0.005724772207
-0.00721746618
-0.01246459536
-0.02685469366
-0.02716048408
-0.02770090015
-0.02842124474
-0.02978732352
-0.03188710043
-0.03465670197
-0.03788728221
-0.04123140963
-0.04420242183
-0.04618543977
-0.04647610051
-0.04446045776
-0.03965751831
-0.03211865625
-0.02269655589
-0.01326454275
-0.006484055273
-0.005806838177
-0.01076345805
-0.03433292509
-0.03441638461
-0.03478771906
-0.03540274021
-0.03688993409
-0.03940792612
-0.04291778598
-0.04719524252
-0.05183748797
-0.05625570698
-0.05967703182
-0.06118822257
-0.05977694244
-0.05465331878
-0.04543874955
-0.03269755609
-0.01845110471
-0.006244066213
-0.001672227353
-0.004871930815
-0.04260798596
-0.04227762166
-0.04219386127
-0.04229414439
-0.04351179216
-0.04611434029
-0.0500973812
-0.05521798772
-0.06101254213
-0.06679358869
-0.07163754183
-0.0744105182
-0.07383020843
-0.06867268451
-0.05806990718
-0.04205992525
-0.02243826729
-0.003255553234
0.007348629327
0.008342927311
-0.05200847221
-0.0507591998
-0.04967607115
-0.04857716892
-0.04892496572
-0.05111826816
-0.05517079852
-0.0607939979
-0.06743319234
-0.07428752336
-0.08028044869
-0.08407402518
-0.0841286377
-0.07883572049
-0.06684116616
-0.04752191146
-0.02212603934
0.005503152754
0.02471668566
0.03352863035
-0.06365412004
-0.06018749864
-0.05709572355
-0.05376281502
-0.05246392039
-0.05367848071
-0.05736314952
-0.06313624163
-0.07026058459
-0.07779902325
-0.08449078482
-0.0887841581
-0.08889671793
-0.08283821502
-0.06884951593
-0.04561968546
-0.01375046818
0.02441794726
0.05554067469
0.07735686044
-0.08018479688
-0.07107344034
-0.06411980993
-0.05716420179
-0.05343034804
-0.05321432497
-0.05625791808
-0.06191278204
-0.06925780891
-0.07711577086
-0.08401110967
-0.08815073563
-0.08747938724
-0.07965540707
-0.06247850934
-0.0340496152
0.005565563701
0.05859498657
0.1058239148
0.1480686016
-0.1105063667
-0.08585376062
-0.07160586488
-0.05897101527
-0.05191342476
-0.04988304845
-0.05210267633
-0.05750864903
-0.06485934217
-0.07270818371
-0.07933966959
-0.08271313798
-0.08051913931
-0.0698862886
-0.0482316139
-0.0127218532
0.03823679583
0.1071327813
0.1779793413
0.2564771664
-0.1684367208
-0.09990808676
-0.07500833858
-0.05479807549
-0.04461921755
-0.04158562797
-0.04371807
-0.04938180704
-0.05701731828
-0.06497082859
-0.07136173883
-0.07398014867
-0.07012915107
-0.05701292221
-0.03102778145
0.01193005313
0.07560010943
0.166404839
0.2761626087
0.4377048949
-0.3984280034
-0.1380992881
-0.07497056963
-0.04708870009
-0.03354977211
-0.03003046349
-0.03280248713
-0.03926510818
-0.04755874633
-0.05593922465
-0.06250026103
-0.06502944537
-0.06099487305
-0.04696891369
-0.0187559442
0.02993623729
0.1069563554
0.2334278867
0.4198808272
0.7800240224
)


// ************************************************************************* //
