/*--------------------------------*- C++ -*----------------------------------*\
  =========                 |
  \\      /  F ield         | OpenFOAM: The Open Source CFD Toolbox
   \\    /   O peration     | Website:  https://openfoam.org
    \\  /    A nd           | Version:  13
     \\/     M anipulation  |
\*---------------------------------------------------------------------------*/
FoamFile
{
    format      ascii;
    class       volScalarField;
    location    "34";
    object      p;
}
// * * * * * * * * * * * * * * * * * * * * * * * * * * * * * * * * * * * * * //

dimensions      [0 2 -2 0 0 0 0];

internalField   nonuniform List<scalar> 
400
(
9.657809736e-10
-0.0005244569043
-0.001162918196
-0.001655259519
-0.001882369387
-0.001795407068
-0.001370512364
-0.0005974142446
0.000514274267
0.001920219758
0.003526568518
0.00518375761
0.006697315565
0.007859075038
0.008496848716
0.008530386674
0.008014441722
0.007152888676
0.006274583722
0.005724291627
0.0005313276779
-1.125017428e-05
-0.0005741061801
-0.0009668886756
-0.001136219532
-0.001055611584
-0.0007045756195
-6.873438581e-05
0.0008516080645
0.002026971141
0.003384043825
0.004798716186
0.006103264731
0.007114267367
0.007677678185
0.007720356161
0.007288048701
0.006550621621
0.005766971078
0.005206954179
0.001194761161
0.000514867848
-7.986532934e-05
-0.0004386588415
-0.0005930652174
-0.0005506478621
-0.0002968426876
0.0001901417004
0.0009258756855
0.001902296911
0.003069620591
0.004324903578
0.005515065778
0.006461097796
0.007002795022
0.007052715959
0.006636474789
0.005892336012
0.005024212624
0.004294394997
0.001670011672
0.0007929958023
8.246751074e-05
-0.0003191461383
-0.0005199971652
-0.0005603279083
-0.0004293420427
-9.325559938e-05
0.0004854814854
0.001325523216
0.00240209682
0.003628258498
0.004851212569
0.005872995814
0.006497482625
0.006593787219
0.006149498988
0.005275898909
0.004158277178
0.003128129959
0.001704461726
0.0006277862277
-0.0002245910257
-0.0007124994831
-0.00100932476
-0.001180478133
-0.001212969103
-0.001054934589
-0.0006400777459
8.416717225e-05
0.001124507289
0.002413780057
0.003796239509
0.005041852293
0.005893714725
0.006144574755
0.005713701152
0.004673123133
0.003209558186
0.00178359483
0.001089069613
-0.0001659120999
-0.001161890657
-0.001765235911
-0.002204578945
-0.00256256162
-0.002817761058
-0.002893976352
-0.00268835954
-0.002103903856
-0.00108926339
0.0003227931793
0.001982017657
0.003623377469
0.004906999789
0.005507742062
0.00522664485
0.004058689391
0.002189604326
0.0002697940956
-0.0003521982107
-0.001753696502
-0.002886885517
-0.003632190356
-0.004264734161
-0.00487834303
-0.0054389699
-0.005841230556
-0.005937683671
-0.005572917913
-0.004629300366
-0.003082954779
-0.001049921975
0.00118095811
0.003171770192
0.004429892609
0.004561657072
0.003407338115
0.001112980031
-0.001411888353
-0.00275545247
-0.00426544656
-0.005525578642
-0.006438939124
-0.007319828786
-0.008270413922
-0.009243483971
-0.01010273654
-0.01064973529
-0.0106559792
-0.009911868185
-0.008294328227
-0.005844360059
-0.002837306811
0.0001966418143
0.00255032788
0.003531185398
0.002689279401
2.830745824e-05
-0.003214326429
-0.00620524904
-0.007781040749
-0.009152439364
-0.01025378576
-0.01143392663
-0.01280504603
-0.01431109146
-0.0157878071
-0.01698348578
-0.01758419527
-0.01726056575
-0.01574458062
-0.01293746895
-0.009032329592
-0.004606765526
-0.0006023830406
0.001872539822
0.001873181446
-0.0009450716874
-0.004983591214
-0.01072495866
-0.01231957617
-0.01377410808
-0.01506181177
-0.01656712351
-0.0184202182
-0.02056604127
-0.02282072853
-0.02488310406
-0.02634845764
-0.02674650115
-0.02561989091
-0.02265828246
-0.01787157132
-0.01178504682
-0.005531067609
-0.0007209882299
0.0009461924376
-0.001567201228
-0.006372232905
-0.01627658879
-0.0178376327
-0.0193208434
-0.02074500322
-0.02254282136
-0.02487934816
-0.02771559373
-0.03086050537
-0.03397279186
-0.03656078944
-0.03800576166
-0.0376309066
-0.03485712945
-0.02939423312
-0.02156569898
-0.01255612654
-0.004470813667
-1.480871365e-05
-0.001399749934
-0.006707882433
-0.02277935463
-0.02424373568
-0.02565173201
-0.02707587734
-0.02903216008
-0.0317498706
-0.0352245334
-0.03927023309
-0.04351597903
-0.04739326816
-0.05014394534
-0.05087502046
-0.04867684759
-0.04290037521
-0.03349410552
-0.02146393729
-0.009241249177
-0.0006696586061
0.00032767072
-0.004797064387
-0.0301587029
-0.03143514075
-0.03257590047
-0.03372777519
-0.03556403664
-0.03842283519
-0.04235110728
-0.04717275404
-0.05249008023
-0.05766493172
-0.06181206803
-0.06383317622
-0.06252444006
-0.05681626523
-0.0461641807
-0.03113738828
-0.01416195179
-0.0001101210023
0.004954327168
0.001355927137
-0.0384479044
-0.03936251263
-0.03988488463
-0.04029677554
-0.04156060716
-0.04417810332
-0.0482513727
-0.05360031873
-0.05978571234
-0.06609268846
-0.07151522823
-0.07477286429
-0.07439524122
-0.06892337228
-0.05728284684
-0.03941481178
-0.01732862956
0.003493669639
0.01473938636
0.01490784523
-0.04799085087
-0.04813251379
-0.04738670535
-0.04632553379
-0.0463925643
-0.04828711127
-0.05213312134
-0.05770121895
-0.0644697469
-0.07161750867
-0.07800382457
-0.0821718321
-0.08241162675
-0.07692718847
-0.06416301036
-0.04338365168
-0.0158404853
0.01304870486
0.03311660637
0.04039627219
-0.05978892566
-0.05817578989
-0.0549503989
-0.05134040489
-0.04946439076
-0.05014784586
-0.05342822204
-0.05894000749
-0.06601128403
-0.07366392649
-0.08058711343
-0.08512790019
-0.0853358023
-0.07910358431
-0.06445899083
-0.04006060238
-0.006257995028
0.03231396422
0.06449361551
0.08327196069
-0.07609034393
-0.07056307203
-0.06254719223
-0.05489345883
-0.0503115224
-0.04940649907
-0.05191143828
-0.05719712885
-0.06435876
-0.0722031249
-0.07920878368
-0.08349566484
-0.08284511239
-0.07480686881
-0.056969232
-0.02739998881
0.01447742216
0.06541432973
0.1143194405
0.1501133965
-0.1040424812
-0.08783155297
-0.06992422486
-0.05624443985
-0.04834833454
-0.04572073261
-0.04746815958
-0.05254411443
-0.05972284297
-0.06756028823
-0.0743158817
-0.07788078094
-0.07576084314
-0.06510370992
-0.04290178899
-0.006317049637
0.04661118013
0.1151968223
0.1913768605
0.2581806868
-0.1758742865
-0.1148062628
-0.07358455589
-0.05189695014
-0.0411905818
-0.03755130209
-0.03920357573
-0.04459165864
-0.05212101972
-0.06013731025
-0.06676532569
-0.0697497492
-0.06640683377
-0.05354660685
-0.02743349977
0.01628162744
0.08256806749
0.1772092762
0.3052552765
0.4525591519
-0.3557458214
-0.1551722441
-0.07039480292
-0.04278090194
-0.03135501942
-0.02758035698
-0.02971085714
-0.03583879849
-0.04403648598
-0.05251654593
-0.05937495064
-0.06235173824
-0.05871495484
-0.04512641467
-0.01727674811
0.0307195542
0.1082939243
0.2332179435
0.4346684029
0.735745301
)
;

boundaryField
{
    movingWall
    {
        type            zeroGradient;
    }
    fixedWalls
    {
        type            zeroGradient;
    }
    frontAndBack
    {
        type            empty;
    }
}


// ************************************************************************* //
