/*--------------------------------*- C++ -*----------------------------------*\
  =========                 |
  \\      /  F ield         | OpenFOAM: The Open Source CFD Toolbox
   \\    /   O peration     | Website:  https://openfoam.org
    \\  /    A nd           | Version:  13
     \\/     M anipulation  |
\*---------------------------------------------------------------------------*/
FoamFile
{
    format      ascii;
    class       volScalarField;
    location    "34";
    object      p;
}
// * * * * * * * * * * * * * * * * * * * * * * * * * * * * * * * * * * * * * //

dimensions      [0 2 -2 0 0 0 0];

internalField   nonuniform List<scalar> 
400
(
2.294521466e-07
-0.0005472422583
-0.0008892902762
-0.001016789841
-0.0009379460062
-0.0006850874539
-0.0002957765309
0.0001939750695
0.0007476131344
0.001324644973
0.001879451773
0.002359200269
0.002708506578
0.002874266001
0.002814927504
0.002512487946
0.001987423113
0.001296882816
0.0006379535341
4.205368516e-05
0.0005884129439
7.111763346e-06
-0.0003566182823
-0.0004989404508
-0.0004683019409
-0.0002912651884
2.815160703e-06
0.0003846686916
0.0008228756563
0.00128013932
0.001716597219
0.002081098347
0.002323292494
0.002395832499
0.002264849211
0.001921557139
0.001392693234
0.0007433137407
0.0001456620044
-0.0005170172858
0.0009526709398
0.0003082508468
-9.300914723e-05
-0.0002393263869
-0.0002331907744
-0.0001046970538
0.0001221141442
0.0004259739257
0.0007831707907
0.001161698801
0.001529739798
0.001833148134
0.002021989309
0.002047549927
0.00187470707
0.001493648953
0.0009283518599
0.0002353709969
-0.0004630978518
-0.001300063682
0.0009763862971
0.0002582136348
-0.0001920582036
-0.0003443631525
-0.0003536142483
-0.0002566159278
-7.402362534e-05
0.0001815630825
0.0004966130398
0.0008509072544
0.001203257723
0.001510742191
0.001712548907
0.001748138592
0.001568644996
0.001150689673
0.0005061003426
-0.0003183843359
-0.001233712398
-0.002384504112
0.0004807147368
-0.0002847559981
-0.0007636700688
-0.0009153919291
-0.0009364297115
-0.0008680009163
-0.0007250822703
-0.0005081405833
-0.0002169003663
0.0001393959276
0.0005303263071
0.0009076260293
0.001200069596
0.00132676272
0.001211284042
0.0008004375043
8.018015173e-05
-0.0009174208854
-0.002127402073
-0.00365589529
-0.0006861450088
-0.001466915303
-0.001955952026
-0.002107009854
-0.002149803105
-0.002126465657
-0.002042085849
-0.001879455679
-0.001617333275
-0.00124529886
-0.0007788891499
-0.0002626359643
0.0002208444085
0.0005617200122
0.0006380727069
0.000341765228
-0.0003927983257
-0.001563838849
-0.003134622629
-0.005141856448
-0.002661604021
-0.003423321502
-0.003915176874
-0.004080545335
-0.004177912312
-0.004246973176
-0.004278000385
-0.004228948185
-0.004047341238
-0.003689383351
-0.003140527951
-0.002426530742
-0.001633288239
-0.0009032189824
-0.0004246083171
-0.0003984726228
-0.0009880202713
-0.002260361509
-0.004232521195
-0.006828099148
-0.005554785885
-0.006269723733
-0.006768014688
-0.006981955946
-0.007195337031
-0.007443230843
-0.007696939107
-0.007882010145
-0.007901980538
-0.007660423101
-0.007087154565
-0.00615929664
-0.004943548291
-0.003604670774
-0.002413741031
-0.001714323626
-0.0018430096
-0.003014822406
-0.00536825659
-0.008662051417
-0.009435007335
-0.01008134444
-0.01059822125
-0.01091046525
-0.01132586486
-0.01187574219
-0.01251111383
-0.01311948847
-0.01354765218
-0.0136232273
-0.01318235193
-0.01212099591
-0.01042790037
-0.008256433344
-0.005956208018
-0.004061786925
-0.003190052375
-0.003842952496
-0.006426347636
-0.01049153571
-0.01431678456
-0.0148757682
-0.01542275812
-0.01588200647
-0.01658984629
-0.01757997534
-0.01878683054
-0.02005895832
-0.02117744615
-0.02187350404
-0.02185728685
-0.02087217226
-0.01877183171
-0.01562000588
-0.01179498067
-0.008037245354
-0.0053598057
-0.004760065337
-0.007181086268
-0.01197916698
-0.02015429361
-0.02060451781
-0.02117470361
-0.02179670703
-0.02285206304
-0.02439031943
-0.02633918574
-0.02851356859
-0.03062750844
-0.03230344392
-0.03309520346
-0.03254065545
-0.03028243597
-0.02617863755
-0.02052483531
-0.01420386745
-0.008691479433
-0.005726551857
-0.007219199331
-0.0124663463
-0.0268563125
-0.02716207537
-0.02770251066
-0.02842292335
-0.02978912041
-0.03188905645
-0.03465884036
-0.03788960142
-0.04123388491
-0.04420500952
-0.0461880842
-0.04647873494
-0.04446303838
-0.03965998995
-0.03212097949
-0.02269870655
-0.01326651692
-0.006485880105
-0.005808574168
-0.01076517082
-0.03433466397
-0.03441807979
-0.03478942185
-0.03540450345
-0.03689181075
-0.0394099591
-0.04291999988
-0.04719763311
-0.05184002573
-0.05625833979
-0.05967969682
-0.06119086179
-0.05977948906
-0.05465573913
-0.04544101982
-0.0326996646
-0.01845304777
-0.006245858429
-0.001673905047
-0.004873541574
-0.04260980255
-0.04227937842
-0.04219560275
-0.042295924
-0.0435136682
-0.04611636057
-0.05009957388
-0.05522034307
-0.06101502473
-0.06679613656
-0.07164008294
-0.07441298558
-0.07383254924
-0.06867487267
-0.05807193916
-0.04206181498
-0.02244002705
-0.003257197214
0.007347094023
0.008341487303
-0.05201030949
-0.05076096559
-0.04967779154
-0.04857889163
-0.04892675674
-0.05112018428
-0.05517287978
-0.06079622797
-0.06743553541
-0.07428990349
-0.08028278386
-0.08407624112
-0.0841306786
-0.07883756984
-0.06684283679
-0.04752344817
-0.02212747849
0.005501783461
0.02471538421
0.03352742181
-0.06365591135
-0.06018921073
-0.05709735729
-0.05376440822
-0.0524655528
-0.05368022367
-0.05736507117
-0.06313827246
-0.07026274434
-0.07780120751
-0.08449289869
-0.08878611555
-0.08889844053
-0.08283972052
-0.06885080971
-0.04562083494
-0.01375151482
0.02441691788
0.0555396708
0.07735590978
-0.08018647086
-0.07107503024
-0.06412128884
-0.05716559563
-0.05343175901
-0.05321584815
-0.05625961033
-0.06191463948
-0.06925978712
-0.07711777651
-0.08401304112
-0.08815250084
-0.08748093662
-0.07965666218
-0.06247951433
-0.03405043127
0.005564954006
0.05859414043
0.1058231773
0.1480678845
-0.1105078625
-0.08585517143
-0.07160714196
-0.05897218135
-0.05191459149
-0.04988434636
-0.05210416422
-0.05751032609
-0.06486115564
-0.07271003971
-0.07934145945
-0.08271475815
-0.08052048774
-0.06988739364
-0.04823246358
-0.012722502
0.03823627351
0.107132243
0.177978806
0.2564766444
-0.1684380457
-0.09990933838
-0.07500943462
-0.05479906422
-0.04462021512
-0.04158675712
-0.04371939827
-0.04938333751
-0.0570190011
-0.06497257445
-0.07136344363
-0.07398171696
-0.07013051503
-0.0570139969
-0.031028602
0.01192943575
0.07559962331
0.1664043907
0.2761621693
0.4377044332
-0.398429329
-0.1381004904
-0.07497160023
-0.04708961752
-0.03355069473
-0.0300315086
-0.03280372407
-0.03926654643
-0.04756034398
-0.05594090089
-0.06250191717
-0.06503098522
-0.06099622262
-0.04697001921
-0.01875681374
0.02993556442
0.1069558174
0.2334274052
0.4198803601
0.7800235422
)
;

boundaryField
{
    movingWall
    {
        type            zeroGradient;
    }
    fixedWalls
    {
        type            zeroGradient;
    }
    frontAndBack
    {
        type            empty;
    }
}


// ************************************************************************* //
