/*--------------------------------*- C++ -*----------------------------------*\
  =========                 |
  \\      /  F ield         | OpenFOAM: The Open Source CFD Toolbox
   \\    /   O peration     | Website:  https://openfoam.org
    \\  /    A nd           | Version:  13
     \\/     M anipulation  |
\*---------------------------------------------------------------------------*/
FoamFile
{
    format      ascii;
    class       surfaceScalarField;
    location    "34";
    object      phi;
}
// * * * * * * * * * * * * * * * * * * * * * * * * * * * * * * * * * * * * * //

dimensions      [0 3 -1 0 0 0 0];

internalField   nonuniform List<scalar> 
760
(
4.44397951e-06
-4.444113067e-06
-3.888262335e-05
4.332594847e-05
-0.0001311335722
9.225179815e-05
-0.0002564623708
0.000125328776
-0.0003990154128
0.0001425546476
-0.0005454691947
0.0001464544348
-0.0006840106964
0.0001385436185
-0.0008029791342
0.0001189684863
-0.0008902996591
8.731904899e-05
-0.0009341718238
4.387123661e-05
-0.0009249653842
-9.206517489e-06
-0.0008579676265
-6.699784489e-05
-0.0007361745646
-0.0001217914875
-0.0005721789849
-0.0001639937946
-0.000388002635
-0.0001841769835
-0.0002120760633
-0.0001759278753
-7.336153569e-05
-0.000138714148
6.465939291e-06
-7.982646992e-05
2.240248397e-05
-1.593627217e-05
2.240350168e-05
-4.710596552e-05
4.266266105e-05
-0.0002086570572
0.0002048774453
-0.0004713531113
0.0003549493989
-0.0008027309864
0.0004567073438
-0.001168655233
0.000508484271
-0.00153773519
0.0005155347276
-0.001880625163
0.0004814334822
-0.00216860316
0.0004069450831
-0.002373454388
0.0002921676423
-0.002469488791
0.0001399031827
-0.002437541428
-4.11499893e-05
-0.002270083351
-0.0002344511125
-0.001976207341
-0.0004156662433
-0.001584606312
-0.000555595034
-0.001142842803
-0.000625939938
-0.0007113535976
-0.0006074163311
-0.000351857541
-0.0004982112281
-0.0001115997439
-0.0003200854523
-6.114682142e-06
-0.0001214179104
1.6289697e-05
-0.0001112972553
0.0001539596415
-0.0004034859445
0.000497065454
-0.0008306577736
0.0007821221514
-0.001343977185
0.0009700271681
-0.001896716604
0.001061225993
-0.002445594875
0.001064413915
-0.002949529578
0.0009853672576
-0.003368442793
0.0008258550071
-0.003663788195
0.0005875125633
-0.003801417704
0.0002775331682
-0.003756454698
-8.610781756e-05
-0.003519304601
-0.0004715943511
-0.003101494593
-0.0008334728556
-0.002539604537
-0.00111748586
-0.001895222236
-0.001270323371
-0.001248713962
-0.001253923918
-0.0006854780858
-0.001061446126
-0.0002758419667
-0.0007297184016
-5.343005976e-05
-0.0003438274922
-3.714132726e-05
-0.0001723633349
0.0003263236915
-0.0005906407212
0.0009153420419
-0.001173090973
0.001364571879
-0.001852092479
0.001649028095
-0.002569877177
0.001779012422
-0.00327501761
0.001769555375
-0.003919194185
0.001629542566
-0.004455404263
0.001362062086
-0.004838445422
0.0009705566399
-0.005027843364
0.0004669366197
-0.004992788525
-0.0001211565318
-0.004718458099
-0.0007459225086
-0.004212845276
-0.001339086236
-0.003512691146
-0.001817640399
-0.002686248586
-0.002096765923
-0.001829526151
-0.002110647389
-0.001052709009
-0.001838265037
-0.0004563488717
-0.001326076949
-0.0001033859245
-0.0006967924488
-0.0001405274872
-0.0002267482295
0.0005530703989
-0.0007590731577
0.001447661579
-0.001482265406
0.002087762052
-0.002310474289
0.002477235546
-0.003176354225
0.002644892416
-0.00402309799
0.002616297856
-0.004798603107
0.002405047818
-0.005452277167
0.002015738691
-0.005934621267
0.001452907055
-0.006199370388
0.0007316901081
-0.006207834425
-0.0001126885523
-0.005935190558
-0.001018565533
-0.005378758229
-0.001895519949
-0.004567158398
-0.002629240364
-0.00356824067
-0.003095684143
-0.002490943234
-0.003187947887
-0.001474635852
-0.002854575033
-0.0006616222368
-0.00213909225
-0.0001578285741
-0.001200587682
-0.0002983563559
-0.0002726846272
0.0008257542894
-0.0009023604956
0.002077334993
-0.001746717322
0.002932115927
-0.002704413262
0.003434929847
-0.003700731788
0.003641212494
-0.004676087552
0.003591654358
-0.005577568746
0.003306529092
-0.006353815567
0.00279198805
-0.006952982647
0.002052079816
-0.007323324229
0.001102032516
-0.007416333251
-1.968078016e-05
-0.007192454334
-0.001242445852
-0.006630936283
-0.002457038553
-0.005742821711
-0.00351735493
-0.004586118886
-0.004252389119
-0.003277024926
-0.004497045438
-0.001986898737
-0.004144701563
-0.0009133165688
-0.00321267792
-0.0002242887059
-0.001889611564
-0.000522645018
-0.000308346535
0.00113409852
-0.001014449852
0.002783436009
-0.001955069766
0.003872734515
-0.003017180201
0.004497039884
-0.004121355175
0.004745387436
-0.005207810245
0.00467811072
-0.006225634735
0.004324353568
-0.00712553085
0.00369188537
-0.00785567913
0.002782231364
-0.00836020905
0.001606561409
-0.008580204922
0.0002003119996
-0.008458733315
-0.001363918179
-0.007950463618
-0.002965305527
-0.007038688803
-0.00442912827
-0.005758410189
-0.005532669571
-0.004220811153
-0.006034645529
-0.002625339618
-0.005740169275
-0.001236949397
-0.004601070457
-0.000312204643
-0.00281435256
-0.0008348502944
-0.0003318710054
0.001465968196
-0.001089376759
0.003540939984
-0.002095636276
0.004878995382
-0.00322994829
0.005631353112
-0.00441081474
0.005926251079
-0.005580684417
0.005847979519
-0.006693387095
0.005437054597
-0.007704816496
0.004703314687
-0.00856653554
0.003643951027
-0.009221743597
0.002261768109
-0.009603770756
0.0005823380744
-0.009638533086
-0.00132915414
-0.009253102294
-0.003350731237
-0.008393846862
-0.005288381851
-0.007056486436
-0.006870031695
-0.005326215354
-0.007764917056
-0.003414266846
-0.00765211653
-0.00165694245
-0.006358395925
-0.0004319305738
-0.004039367322
-0.001266782222
-0.0003420183477
0.00180798659
-0.001122724467
0.004321645454
-0.002158596747
0.005914867787
-0.003324768314
0.00679752286
-0.004539917583
0.007141394657
-0.005750873509
0.00705893339
-0.006918845611
0.00660502487
-0.00800838198
0.00579285223
-0.008978900629
0.004614469946
-0.009778162315
0.003061029791
-0.01033774992
0.001141929398
-0.01057182867
-0.001095071437
-0.01038201037
-0.003540548675
-0.009672842778
-0.005997552767
-0.008384652956
-0.008158225561
-0.00654801988
-0.009601553227
-0.004352688458
-0.009847452899
-0.002191526238
-0.008519560501
-0.0005943577846
-0.005636542114
-0.001861139999
-0.0003392641602
0.002147250923
-0.001114268904
0.005096649988
-0.002140080049
0.006940677566
-0.003290098291
0.00794753771
-0.004484969826
0.00833626065
-0.005677830158
0.008251793359
-0.006839793185
0.007766988096
-0.007947665613
0.006900728294
-0.008973923997
0.005640729374
-0.00987813269
0.003965236973
-0.0105994147
0.001863213436
-0.01105051059
-0.0006439736286
-0.01111699764
-0.003474065432
-0.01066454321
-0.00645001328
-0.009567952186
-0.009254819148
-0.007772692053
-0.01139681492
-0.005396986638
-0.01222316204
-0.002844905326
-0.01107164411
-0.0008103206538
-0.007671125837
-0.002671458668
-0.0003272822141
0.002474533396
-0.001071502311
0.005840868644
-0.00204751756
0.007916689853
-0.003127960386
0.009027978686
-0.004237202382
0.009445499622
-0.005336885976
0.009351478158
-0.006410623297
0.008840726107
-0.00745092928
0.007941036993
-0.008448415338
0.006638216693
-0.009382045549
0.004898866324
-0.01020948139
0.002690647222
-0.01085558807
2.129824616e-06
-0.01120700912
-0.003122650155
-0.01110369631
-0.006553326539
-0.01035779558
-0.01000071595
-0.008807791823
-0.01294681588
-0.00644233094
-0.01458861991
-0.003594844552
-0.01391913258
-0.001088916662
-0.0101770502
-0.003760377265
-0.000314877765
0.002789411424
-0.001013798591
0.006539788559
-0.001905391486
0.008808279494
-0.002861057238
0.009983644434
-0.003811806465
0.01039624823
-0.004731361374
0.01027103435
-0.005619017412
0.009728381223
-0.006486068839
0.00880808729
-0.007345153036
0.00749729894
-0.008200579656
0.005754293637
-0.009037660442
0.003527729212
-0.009810861198
0.0007753287099
-0.01042386742
-0.002509645992
-0.0107182415
-0.006258949876
-0.01046366593
-0.01025529107
-0.009390811057
-0.01401967704
-0.007310491698
-0.01666894101
-0.004376099115
-0.0168535293
-0.001433499199
-0.0131196508
-0.005193876821
-0.0003187271619
0.003108138261
-0.000977169348
0.007198231382
-0.00176023605
0.009591343285
-0.002537367275
0.01076077477
-0.003252642191
0.01111152241
-0.003898549225
0.01091694306
-0.004494678031
0.01032450928
-0.005073805454
0.009387213526
-0.005672485888
0.008095978316
-0.006323007566
0.006404815828
-0.007044128448
0.004248849001
-0.007828065309
0.001559262917
-0.008619879276
-0.001717830487
-0.009290960931
-0.005587863795
-0.009607818535
-0.009938432653
-0.00922331612
-0.01440418487
-0.007754271294
-0.01813798614
-0.005064220573
-0.01954358027
-0.001833550877
-0.01635032066
-0.007027422584
-0.000367846525
0.003475984695
-0.001019607387
0.007849993888
-0.001682863623
0.01025459816
-0.002228089746
0.01130599975
-0.00262652706
0.01150995648
-0.002901374026
0.01119179045
-0.003099292812
0.010522428
-0.003276968592
0.009564888247
-0.003494486749
0.008313497985
-0.003810562066
0.006720895471
-0.004276629769
0.004714917974
-0.004926855142
0.002209486094
-0.005759859959
-0.0008848234983
-0.006706884633
-0.004640840304
-0.00758127624
-0.009064040727
-0.00802023156
-0.0139652267
-0.007481154491
-0.01867705873
-0.005466303795
-0.02155843252
-0.002250501186
-0.01956612467
-0.00927792728
-0.0005103489462
0.003986333816
-0.001224705535
0.008564350762
-0.00176096968
0.01079086174
-0.00200805763
0.01155308884
-0.001993322253
0.01149521746
-0.001789889112
0.01098835512
-0.001480412734
0.01021295185
-0.001147447609
0.009231924519
-0.0008722031367
0.008038253839
-0.0007348358471
0.006583525611
-0.0008135057611
0.004793581985
-0.001180037295
0.002576015197
-0.001888372937
-0.0001764802925
-0.002947574155
-0.003581637275
-0.004264968772
-0.007746643715
-0.005545789056
-0.01268440275
-0.006180960237
-0.01804188906
-0.005317572171
-0.0224218261
-0.002595064576
-0.02228863537
-0.01187298693
-0.0008156147534
0.004801948421
-0.001688244451
0.009436978711
-0.002053634772
0.01115624825
-0.001880106078
0.01137956175
-0.001308174677
0.01092328796
-0.0004880220783
0.01016820131
0.0004528781705
0.009272050357
0.001406334471
0.008278469991
0.002274910436
0.007169681844
0.002964567218
0.005893871635
0.003379633676
0.004378517895
0.00342081866
0.002534836077
0.00298804938
0.0002562949543
0.00199536106
-0.002588952685
0.0004156923007
-0.006166980238
-0.001604951334
-0.01066375884
-0.0035329339
-0.01611390081
-0.004272950539
-0.02168180091
-0.002693304653
-0.02386829396
-0.01456629199
-0.001350858493
0.006152806465
-0.002425192089
0.01051131149
-0.002397297546
0.01112834808
-0.001513303792
0.01049556697
-0.0001285338469
0.009538520251
0.001506376769
0.008533291181
0.003222511526
0.007555914013
0.004896572154
0.006604409863
0.006427253254
0.005639003292
0.007719158453
0.004601966851
0.008671837419
0.003425839877
0.009172548609
0.002034127728
0.009091743471
0.0003370999528
0.008285455588
-0.001782657428
0.006614418546
-0.004495939786
0.004029751155
-0.008079099961
0.0008278569358
-0.01291201619
-0.001894380227
-0.01895956828
-0.00225965842
-0.02350301004
-0.01682595092
-0.002135614005
0.008288419465
-0.002924108677
0.01129980954
-0.001692791838
0.009897026711
0.0005246363681
0.008278134293
0.003100504644
0.006962650206
0.005744745679
0.005889051531
0.008304624623
0.00499603895
0.01068369733
0.004225344543
0.01280768038
0.003515025596
0.01460321637
0.002806430061
0.0159844762
0.002044582552
0.01684439854
0.001174212125
0.01704576436
0.0001357278979
0.01641651776
-0.001153403517
0.01474086677
-0.002820280595
0.01178410488
-0.005122335715
0.00745540297
-0.008583306903
0.002442252733
-0.01394642001
-0.0008862490794
-0.02017451186
-0.01771220216
-0.002486824536
0.01077524258
-1.170387733e-05
0.008824692097
0.004176950501
0.005708373931
0.008324194173
0.004130886944
0.01211526434
0.003171577714
0.01551949162
0.002484824631
0.01853808115
0.001977451456
0.02117689104
0.001586538512
0.0234326417
0.001259278107
0.02528274125
0.000956330396
0.02668018976
0.0006471346015
0.02754733563
0.0003070678722
0.02777088744
-8.78300565e-05
0.02719095682
-0.000573472908
0.02556991403
-0.001199243694
0.02254611015
-0.00209852906
0.01761740406
-0.003654599286
0.01040005178
-0.006729071197
0.002474213826
-0.01224867463
-0.01523799095
0.01077524068
0.01959992982
0.0253083038
0.0294391929
0.03261077171
0.03509559706
0.03707305116
0.0386595927
0.03991887037
0.04087520012
0.04152233771
0.04182940649
0.04174157571
0.04116810822
0.03996886111
0.03787033402
0.03421573243
0.02748666362
0.01523799056
)
;

boundaryField
{
    movingWall
    {
        type            calculated;
        value           uniform 0;
    }
    fixedWalls
    {
        type            calculated;
        value           uniform 0;
    }
    frontAndBack
    {
        type            empty;
    }
}


// ************************************************************************* //
