/*--------------------------------*- C++ -*----------------------------------*\
  =========                 |
  \\      /  F ield         | OpenFOAM: The Open Source CFD Toolbox
   \\    /   O peration     | Website:  https://openfoam.org
    \\  /    A nd           | Version:  13
     \\/     M anipulation  |
\*---------------------------------------------------------------------------*/
FoamFile
{
    format      ascii;
    class       surfaceScalarField;
    location    "34";
    object      phi_0;
}
// * * * * * * * * * * * * * * * * * * * * * * * * * * * * * * * * * * * * * //

dimensions      [0 3 -1 0 0 0 0];

internalField   nonuniform List<scalar> 
760
(
-1.321996118e-05
1.321742398e-05
-7.201828975e-05
5.87983241e-05
-0.000162072957
9.005461014e-05
-0.0002652229338
0.0001031500675
-0.000368242334
0.0001030196692
-0.0004615038776
9.326167523e-05
-0.0005377493953
7.624524795e-05
-0.0005912416091
5.349166377e-05
-0.0006175090179
2.626700503e-05
-0.0006135891313
-3.919816704e-06
-0.0005784597377
-3.512893157e-05
-0.0005138424187
-6.461682228e-05
-0.0004246591345
-8.918309117e-05
-0.0003192815649
-0.0001053777468
-0.0002092254162
-0.0001100564899
-0.000108138744
-0.0001010869221
-2.992515064e-05
-7.821366314e-05
1.414926958e-05
-4.407439929e-05
2.190953291e-05
-7.760286571e-06
2.190954538e-05
-6.870384188e-05
8.192127502e-05
-0.0002457757777
0.0002358703557
-0.000493473054
0.0003377517493
-0.0007722774757
0.0003819541101
-0.001050408798
0.0003811508271
-0.001303005201
0.000345858474
-0.001510602861
0.0002838436894
-0.001657870599
0.0002007599849
-0.001733198155
0.0001015945038
-0.00172930416
-7.814384552e-06
-0.001643830156
-0.0001206035702
-0.00148141303
-0.0002270342116
-0.001254381047
-0.0003162148917
-0.0009832942837
-0.0003764641566
-0.0006961412939
-0.0003972092655
-0.0004257314015
-0.0003714968148
-0.0002049933624
-0.0002989517688
-5.981241987e-05
-0.0001892553273
-4.921324593e-07
-6.708036443e-05
2.141730798e-05
-0.0001229343988
0.0002048556223
-0.00041497227
0.0005279084437
-0.0008086675417
0.0007314473124
-0.001247163977
0.0008204504847
-0.00168466003
0.0008186464172
-0.002084428543
0.0007456264679
-0.002416963707
0.0006163787136
-0.002658574037
0.0004423706647
-0.002790989184
0.0002340101827
-0.002802411172
3.607899894e-06
-0.002687899995
-0.0002351148055
-0.002452959884
-0.0004619746274
-0.002114170449
-0.0006550045996
-0.001700373355
-0.0007902613154
-0.001251821775
-0.000845760725
-0.0008167443696
-0.0008065740425
-0.0004446231657
-0.0006710728225
-0.0001762320226
-0.0004576463721
-3.221214713e-05
-0.000211100204
-1.079493967e-05
-0.0001720783031
0.0003769337829
-0.0005725604318
0.000928390427
-0.00110596679
0.001264853943
-0.001698034653
0.001412518765
-0.00229059458
0.001411206552
-0.002837251479
0.001292283185
-0.003300214095
0.001079340921
-0.003648288704
0.0007904449868
-0.003856335489
0.0004420570122
-0.003905812713
5.308540669e-05
-0.003787744471
-0.0003531827632
-0.003504022031
-0.0007456969691
-0.003071270223
-0.001087756503
-0.002522629202
-0.001338902473
-0.001907995068
-0.001460394884
-0.001290904868
-0.001423664128
-0.0007407538199
-0.001221223697
-0.0003202706679
-0.000878129398
-7.110212402e-05
-0.0004602687491
-8.189716419e-05
-0.0002170217885
0.0005939556547
-0.0007188325789
0.001430200849
-0.001385654447
0.001931675593
-0.00212712139
0.002153985803
-0.002874371121
0.0021584566
-0.003573191599
0.001991103936
-0.004178975127
0.001685124467
-0.004653579966
0.001265049615
-0.004964194195
0.0007526710152
-0.005084013012
0.0001729041631
-0.004995019126
-0.0004421765356
-0.004691185214
-0.001049530722
-0.004183514945
-0.001595426712
-0.003504387322
-0.002018030155
-0.002710448367
-0.002254333917
-0.001881576782
-0.00225253571
-0.001113232496
-0.001989567903
-0.0005008207017
-0.001490541109
-0.0001191420052
-0.0008419474576
-0.0002010392273
-0.0002573663986
0.0008513223086
-0.0008513388931
0.002024173358
-0.001642295105
0.002722631569
-0.002526554921
0.003038245386
-0.003426897931
0.003058799569
-0.004283384707
0.002847590878
-0.005046210059
0.002447950037
-0.00567101302
0.001889852673
-0.006116746209
0.001198404146
-0.006345976733
0.0004021345717
-0.006327838387
-0.0004603149452
-0.006042471651
-0.001334897441
-0.0054883197
-0.002149578629
-0.004689978697
-0.002816371173
-0.003705725111
-0.003238587559
-0.002631181682
-0.003327079186
-0.001594225929
-0.00302652366
-0.0007363867242
-0.002348380296
-0.0001821205112
-0.001396213687
-0.0003831597546
-0.0002911839121
0.001142506242
-0.0009641242987
0.002697114025
-0.001864161974
0.003622669328
-0.002878143029
0.00405222633
-0.00392346118
0.004104117542
-0.004936997425
0.003861127035
-0.005865883995
0.003376836663
-0.006660996727
0.002684965533
-0.007273434155
0.001810841672
-0.007653967759
0.0007826681931
-0.007755800359
-0.0003584823863
-0.007539783502
-0.001550914354
-0.006984023093
-0.002705339079
-0.006095810611
-0.003704583686
-0.004925701254
-0.004408696947
-0.003579477787
-0.004673302683
-0.002220386931
-0.004385614541
-0.00105084504
-0.003517922201
-0.0002684676199
-0.002178591123
-0.0006516273627
-0.0003159654233
0.00145847148
-0.001048736794
0.003429885495
-0.002034530106
0.00460846282
-0.003154901318
0.005172597644
-0.004325129864
0.00527434606
-0.00548184533
0.005017842397
-0.006571927607
0.004466918856
-0.007544115923
0.003657153846
-0.008343805844
0.002610531664
-0.008911124887
0.001349987326
-0.009182800797
-8.680642234e-05
-0.009097007645
-0.001636707511
-0.008604579625
-0.003197767138
-0.007684195056
-0.004624968294
-0.00636406521
-0.00572882681
-0.004746041027
-0.006291326866
-0.003022880724
-0.006108774846
-0.001469580552
-0.005071222383
-0.0003882443406
-0.003259927341
-0.001039871683
-0.000329195415
0.001787666816
-0.001096442415
0.004197132373
-0.002135078384
0.005647098811
-0.003325366347
0.006362885707
-0.004583648829
0.006532628626
-0.005849369944
0.006283563517
-0.007072571076
0.005690119926
-0.008203820532
0.004788403236
-0.009187253856
0.003593964979
-0.009956889032
0.002119622562
-0.01043606483
0.0003923694601
-0.01054224526
-0.001530527014
-0.01019503081
-0.003544981567
-0.009334085452
-0.005485913664
-0.007946625868
-0.007116286397
-0.006105924314
-0.008132028408
-0.004012928575
-0.008201770571
-0.002014592112
-0.007069558842
-0.0005528019714
-0.004721717477
-0.001592673639
-0.0003297927092
0.00211745962
-0.00110170146
0.004969041027
-0.002151422585
0.006696819849
-0.003361076642
0.007572539754
-0.004650843864
0.007822395898
-0.005965954696
0.007598674402
-0.007263376886
0.006987542121
-0.008500563223
0.006025589535
-0.009627008941
0.004720410662
-0.01057859981
0.003071213442
-0.01127459233
0.001088362039
-0.01161814584
-0.001186973428
-0.01150162621
-0.003661501142
-0.01082052343
-0.006167016413
-0.009502998896
-0.008433810918
-0.007560606734
-0.01007442056
-0.005160871739
-0.01060150555
-0.00269611469
-0.009534315881
-0.0007741500603
-0.006643682095
-0.00236682369
-0.0003199349176
0.002437394632
-0.00106668666
0.005715792803
-0.002080423772
0.007710556915
-0.00324681431
0.008738930247
-0.004492307486
0.009067889068
-0.005770872694
0.008877239631
-0.007050315403
0.008266984849
-0.008300541404
0.007275815534
-0.009484301363
0.005904170604
-0.01054996191
0.004136873979
-0.01142562002
0.001964020166
-0.01201417145
-0.0005984219546
-0.0121937937
-0.00348187884
-0.01182096776
-0.006539842321
-0.01075537739
-0.009499401264
-0.008913749326
-0.01191604861
-0.006370856673
-0.0131443982
-0.003498964422
-0.01240620812
-0.001063151109
-0.009079495396
-0.003429974794
-0.0003074095827
0.002744804207
-0.00100658782
0.006414971113
-0.001938355357
0.008642324488
-0.002991899679
0.009792474576
-0.004102814289
0.01017880367
-0.005237449935
0.01001187527
-0.006378629126
0.009408164036
-0.007514085104
0.008411271507
-0.008627333258
0.007017418751
-0.009689845811
0.005199386524
-0.01065314404
0.002927318387
-0.01143756943
0.0001860034408
-0.01192945752
-0.002989990728
-0.01196499139
-0.006504308429
-0.01134373939
-0.01012065324
-0.009868967723
-0.01339082027
-0.007460113836
-0.01555325208
-0.004363834108
-0.01550248784
-0.001425535414
-0.01201779408
-0.004855510204
-0.0003089285533
0.003053732706
-0.0009555682028
0.007061610783
-0.00176849134
0.009455247682
-0.002639392358
0.01066337565
-0.003518264295
0.01105767564
-0.004389725293
0.01088333627
-0.005256722288
0.01027516101
-0.006129517977
0.009284067174
-0.007017710867
0.007905611624
-0.007923330627
0.006105006273
-0.008832217291
0.003836205039
-0.009704218452
0.001058004593
-0.01045072995
-0.002243479236
-0.01092412309
-0.006030915288
-0.01089503074
-0.01014974557
-0.01006488952
-0.01422096147
-0.008157306095
-0.01746083549
-0.005167631677
-0.01849216225
-0.001854348891
-0.01533107686
-0.00670985909
-0.0003552704399
0.003409003123
-0.0009733343086
0.007679674623
-0.001646059422
0.01012797282
-0.002268713203
0.01128602948
-0.002816843577
0.01160580606
-0.003303697832
0.01137019055
-0.003759414787
0.01073087796
-0.004220929919
0.009745582284
-0.004726152411
0.008410834091
-0.005309768359
0.006688622204
-0.005996662308
0.004523098975
-0.006791803773
0.001853146046
-0.007660590715
-0.001374692302
-0.008503033904
-0.0051884721
-0.009113181866
-0.009539597601
-0.009142510748
-0.01419163258
-0.008128402233
-0.01847494399
-0.005711157174
-0.0209094073
-0.002318284846
-0.01872394917
-0.009028143932
-0.0005003774666
0.003909380598
-0.001151297861
0.008330594988
-0.001674823508
0.01065149846
-0.001981643893
0.01159284988
-0.002095676983
0.01171983918
-0.00207574098
0.01135025457
-0.00198848309
0.01064362009
-0.001901157625
0.009658256826
-0.001878933647
0.008388610112
-0.001985977656
0.006795666206
-0.002282473351
0.004819594663
-0.00281876184
0.002389434529
-0.003622157868
-0.0005712962775
-0.004668847956
-0.00414178201
-0.00583463925
-0.008373806301
-0.006807667053
-0.01321860477
-0.007016671048
-0.01826593999
-0.005716402108
-0.02220967623
-0.002739567337
-0.02170078394
-0.01176771127
-0.0008308858265
0.004740266423
-0.001604834304
0.009104543457
-0.001950982041
0.01099764619
-0.001839386705
0.01148125454
-0.001385439856
0.01126589234
-0.0007181375937
0.01068295233
4.820674352e-05
0.009877275787
0.0008163979428
0.00889006567
0.001495353841
0.00770965425
0.001998417544
0.006292602526
0.00223851126
0.004579500956
0.002128349088
0.002499596703
0.001583154723
-2.610191081e-05
0.0005450267636
-0.003103654049
-0.0009843187066
-0.006844460826
-0.002828405113
-0.01137451836
-0.004459128427
-0.01663521667
-0.00481049085
-0.0218583138
-0.00294429131
-0.02356698347
-0.01471200258
-0.0014656829
0.006205949301
-0.002379877893
0.01001873846
-0.002373447274
0.01099121558
-0.0016035455
0.01071135277
-0.0003496310568
0.01001197791
0.001163637035
0.009169684266
0.002771835941
0.008269076921
0.004349527768
0.007312373895
0.005791617396
0.006267564673
0.006998008891
0.005086211069
0.007865487727
0.003712022141
0.008282280301
0.002082804138
0.008123817895
0.0001323604968
0.007264493012
-0.002244329163
0.005585209892
-0.005165177704
0.003073870492
-0.008863178953
7.89702521e-05
-0.01364031643
-0.002445748514
-0.01933359503
-0.002601078426
-0.02341165356
-0.017313081
-0.002365504155
0.008571453443
-0.002963809392
0.01061704371
-0.001922815559
0.009950221764
8.111286304e-05
0.008707424364
0.002534883744
0.007558207038
0.005140251543
0.00656431648
0.007719748835
0.005689579651
0.01015461648
0.004877506281
0.01234956844
0.004072612741
0.01421199747
0.003223782066
0.01564053581
0.002283483822
0.01651758514
0.001205754808
0.01669709636
-4.71507139e-05
0.01602712354
-0.001574356344
0.01430508787
-0.003443142031
0.01133282902
-0.005890920103
0.007055612317
-0.009363099712
0.002201622765
-0.01447960547
-0.001027320933
-0.02018270985
-0.01834040193
-0.002150342789
0.01072179625
-7.199464757e-05
0.008538695607
0.003741898071
0.006136329069
0.007719771841
0.004729550595
0.01156186927
0.003716109591
0.01514100809
0.002985177639
0.01839885313
0.002431734595
0.02130155214
0.001974807265
0.02381243021
0.001561734668
0.02587973146
0.001156480821
0.02743056594
0.0007326493456
0.02836472557
0.0002715951778
0.02857561542
-0.0002580405523
0.0278876637
-0.0008864046232
0.02609934017
-0.001654818495
0.02290826487
-0.002699844797
0.01790696624
-0.004361801072
0.01076690775
-0.007339546978
0.002912180195
-0.01232798229
-0.01542822174
0.01072179628
0.01926049191
0.02539682097
0.03012637154
0.0338424811
0.0368276587
0.03925939327
0.04123420052
0.04279593518
0.043952416
0.04468506535
0.04495666053
0.04469861998
0.04381221536
0.04215739687
0.03945755207
0.035095751
0.02775620403
0.01542822174
)
;

boundaryField
{
    movingWall
    {
        type            calculated;
        value           uniform 0;
    }
    fixedWalls
    {
        type            calculated;
        value           uniform 0;
    }
    frontAndBack
    {
        type            empty;
    }
}


// ************************************************************************* //
