/*--------------------------------*- C++ -*----------------------------------*\
  =========                 |
  \\      /  F ield         | OpenFOAM: The Open Source CFD Toolbox
   \\    /   O peration     | Website:  https://openfoam.org
    \\  /    A nd           | Version:  13
     \\/     M anipulation  |
\*---------------------------------------------------------------------------*/
FoamFile
{
    format      ascii;
    class       volVectorField;
    location    "34";
    object      U;
}
// * * * * * * * * * * * * * * * * * * * * * * * * * * * * * * * * * * * * * //

dimensions      [0 1 -1 0 0 0 0];

internalField   nonuniform List<vector> 
400
(
(1.098574209e-05 -3.784576614e-05 0)
(-0.000666116666 0.0004130398385 -1.549995712e-23)
(-0.002185379649 0.0009203925836 0)
(-0.004047832865 0.001312779539 0)
(-0.00597186489 0.001535064429 6.843893691e-25)
(-0.007762777379 0.001569846567 4.151209645e-24)
(-0.009284537413 0.001423562406 -7.367472649e-24)
(-0.01043593222 0.001119722286 7.536650663e-24)
(-0.01113680465 0.0006960820004 -2.095903846e-25)
(-0.01132710219 0.0002030776503 -3.995419813e-24)
(-0.01097176449 -0.0003002329244 5.804374719e-24)
(-0.0100723213 -0.0007475153809 -5.930082837e-23)
(-0.008679875239 -0.001075561656 -6.553234947e-23)
(-0.006902850091 -0.001233043605 -7.784931244e-23)
(-0.004910737089 -0.00119263827 4.574000467e-24)
(-0.002927232439 -0.0009619208525 -4.13835982e-24)
(-0.001205300511 -0.0005912127251 -1.99901984e-22)
(-1.906975264e-05 -0.0001698843492 0)
(0.0005181534007 0.0001720841009 1.510615304e-25)
(0.0002227513367 0.0003059783532 -2.565970956e-24)
(-0.000263372482 0.0008289496747 1.384014884e-25)
(-0.002703313877 0.003383830219 1.559771213e-23)
(-0.006907277088 0.005604490414 1.553274608e-25)
(-0.01195231222 0.007008197082 -8.491350428e-25)
(-0.01713502949 0.00755376639 1.161560796e-24)
(-0.02197533347 0.007294191616 1.306359857e-23)
(-0.02611073543 0.00632188822 1.393664824e-24)
(-0.0292656189 0.004754189417 -7.28826897e-24)
(-0.03122670024 0.002737150423 1.015534364e-23)
(-0.03184198028 0.0004524068968 4.510889053e-24)
(-0.03102758701 -0.001884141168 -6.319716788e-24)
(-0.02879314277 -0.004023024 2.961170765e-24)
(-0.02527136542 -0.005708347938 3.895785598e-23)
(-0.02073193661 -0.006707403201 -1.954946426e-24)
(-0.01558961984 -0.006854135474 3.754851459e-24)
(-0.01038513188 -0.006097462351 -9.742271526e-23)
(-0.005730272653 -0.004546187516 9.639047099e-23)
(-0.002233368261 -0.002507422118 -3.963246187e-25)
(-0.0001817753967 -0.0005023759882 4.063200123e-25)
(8.343623928e-05 0.0006099235168 0)
(-0.0004188253262 0.00293506995 -2.911427792e-25)
(-0.004647876097 0.00880399893 1.703405964e-23)
(-0.01137195372 0.01324040376 -8.27176571e-24)
(-0.01932727437 0.01579201955 -2.073263276e-25)
(-0.02747408977 0.01652997951 2.03676508e-25)
(-0.03511775134 0.01564439836 7.022818315e-27)
(-0.04171340361 0.0133599617 -1.226005285e-24)
(-0.04683566769 0.009919762022 -4.554967994e-25)
(-0.05014983771 0.00560243013 -1.063368625e-23)
(-0.05141226822 0.0007444233131 0)
(-0.05047788511 -0.004241772456 0)
(-0.04733702111 -0.008887174849 2.671353895e-23)
(-0.04215924503 -0.01268175469 2.813321794e-23)
(-0.03531434888 -0.01513603655 -1.646357275e-24)
(-0.02738994587 -0.01586188216 4.846520367e-23)
(-0.01917004948 -0.01467333195 9.420534994e-23)
(-0.01156090303 -0.01169359882 3.976953936e-23)
(-0.005465410254 -0.007450742569 4.146012159e-25)
(-0.001451098533 -0.002936045915 1.071628591e-25)
(-9.072613153e-05 0.0002258738031 0)
(-0.0005024637191 0.006045339387 -4.25024961e-23)
(-0.006402735823 0.01637073075 -1.693629376e-23)
(-0.01553501009 0.02355930253 8.198626983e-24)
(-0.02627909368 0.02744158995 0)
(-0.03728742757 0.02832098683 0)
(-0.04769032274 0.02658769493 0)
(-0.05679656841 0.02263117988 -4.488454993e-26)
(-0.06405377173 0.01683607804 -2.13317311e-24)
(-0.06901074326 0.009622178512 0)
(-0.07130820739 0.001491054598 1.636159138e-24)
(-0.07070846761 -0.006936490319 2.803219122e-25)
(-0.06713033338 -0.01493016753 -2.811068062e-25)
(-0.06069900466 -0.02166725585 0)
(-0.05180746488 -0.02631603012 4.133939007e-23)
(-0.04114988752 -0.0281606829 -4.68221379e-23)
(-0.02971968311 -0.02677370112 -2.762619422e-23)
(-0.01873715562 -0.0222152908 -3.962119522e-23)
(-0.009488022715 -0.01521921513 7.795851643e-25)
(-0.002976877681 -0.007298194468 9.78894225e-23)
(-0.0002318787511 -0.000866170898 0)
(-0.0005316129827 0.01009500175 4.27091899e-23)
(-0.007983585057 0.02595216011 4.78304289e-25)
(-0.01939685419 0.03642878009 -4.673800295e-25)
(-0.0328237889 0.04185515411 0)
(-0.04664683916 0.04289480101 7.781044555e-25)
(-0.05985223194 0.04020069578 -7.673157201e-25)
(-0.07163283763 0.03434738248 3.671671171e-23)
(-0.08132742805 0.02585661938 1.84751957e-23)
(-0.08836592165 0.01527297597 6.237054693e-24)
(-0.09225460545 0.003246153693 -1.638065279e-24)
(-0.09260371099 -0.009407812552 0)
(-0.08917547505 -0.02167474923 4.371562253e-25)
(-0.08195972263 -0.03236741174 1.009333732e-23)
(-0.07126879712 -0.04021245891 -4.350012501e-23)
(-0.05782014455 -0.0440204219 1.933321157e-24)
(-0.04278579919 -0.04294825769 4.218615045e-23)
(-0.02775448423 -0.03683344261 -3.843896602e-25)
(-0.014550613 -0.02652719431 0)
(-0.004859458584 -0.01408454009 5.436535283e-23)
(-0.0003641474919 -0.002846954918 -2.564928652e-22)
(-0.0005272207007 0.01499925755 9.840225533e-23)
(-0.009377915579 0.03739017487 -4.906734132e-25)
(-0.02288180339 0.05170216515 0)
(-0.03883039402 0.05894175995 0)
(-0.05538650967 0.06025567705 -8.731435636e-23)
(-0.07142869339 0.05661895016 -8.498458791e-23)
(-0.08606645551 0.04880164091 -4.066865421e-23)
(-0.09855076459 0.03743977532 -1.504041873e-23)
(-0.10819443 0.02315982854 -5.36730279e-24)
(-0.1143443697 0.006709687164 -8.174147921e-24)
(-0.1164045196 -0.0109328958 6.600233852e-24)
(-0.1138936447 -0.02848940941 8.825100373e-24)
(-0.1065486124 -0.04437041012 -1.892311921e-23)
(-0.09446796789 -0.05675327882 4.600925531e-24)
(-0.07826851144 -0.06378292734 0)
(-0.05922891236 -0.06393490061 -1.573588933e-23)
(-0.03933979167 -0.05653812052 -2.40685024e-26)
(-0.0211418733 -0.04235806396 0)
(-0.007318697403 -0.02398228236 -1.520502339e-22)
(-0.0005216157839 -0.005925544273 6.055971576e-22)
(-0.0004990817541 0.02064571976 -9.773190176e-23)
(-0.01052949945 0.05045431963 2.831851746e-22)
(-0.0258295492 0.06912503435 1.526794993e-22)
(-0.0440213405 0.07849248895 3.619060901e-24)
(-0.06310733185 0.08029467693 -7.319319575e-23)
(-0.08190397499 0.07588035284 9.042874306e-23)
(-0.09947754742 0.06621684734 -3.590010503e-24)
(-0.115022638 0.05201691168 -1.729070572e-24)
(-0.1277518115 0.03392356885 2.52401074e-24)
(-0.1368471504 0.01270233937 7.381832808e-24)
(-0.1414709431 -0.01058779341 -6.500031237e-24)
(-0.1408247135 -0.03446019429 -9.786365426e-24)
(-0.1342745008 -0.05692765237 -3.261753499e-23)
(-0.1215449402 -0.07553308775 -3.660434843e-23)
(-0.1029671971 -0.08754252826 5.643813475e-25)
(-0.0797636472 -0.09039202397 0)
(-0.05426678997 -0.08244507709 0)
(-0.02987159011 -0.06397732665 -2.905839351e-24)
(-0.01066284445 -0.03798792605 2.970283588e-24)
(-0.0007350930159 -0.01050089097 1.02787319e-22)
(-0.0004479162123 0.02687247973 0)
(-0.0113492227 0.06480750002 2.001970935e-22)
(-0.02801597337 0.08829607268 8.96206422e-23)
(-0.04799853388 0.1001233862 0)
(-0.06920596419 0.1027075507 1.569815475e-22)
(-0.09044366127 0.09781569487 0)
(-0.1107830847 0.08661095889 -1.428352764e-22)
(-0.1294092831 0.06983945629 6.515354179e-24)
(-0.1454770635 0.04808230113 0)
(-0.1580350774 0.02201756193 0)
(-0.1660132409 -0.007334407591 -1.374359564e-24)
(-0.1682670537 -0.03838834182 -9.316249445e-25)
(-0.1637063739 -0.06883968396 1.491911948e-22)
(-0.1515207902 -0.09558266953 -4.704645501e-23)
(-0.1315133825 -0.1148297717 -2.560759445e-24)
(-0.1045595502 -0.1225702495 1.534514745e-24)
(-0.07309345876 -0.1155517171 -1.558720604e-24)
(-0.04135019185 -0.09283109709 0)
(-0.01525229405 -0.05740764373 3.203698265e-24)
(-0.00104430835 -0.01714713662 -1.012884824e-21)
(-0.0003744665306 0.03346300868 0)
(-0.01175005334 0.07998910114 -1.128225424e-22)
(-0.02920706077 0.1086389804 -6.191016545e-22)
(-0.05031741844 0.1232232753 -3.755240871e-22)
(-0.07296312915 0.126909584 0)
(-0.09598954423 0.1219254596 4.119388189e-22)
(-0.1185272802 0.1096347824 1.260893527e-22)
(-0.1398145658 0.09078240389 -5.581729007e-24)
(-0.1590220732 0.06581390624 5.554102447e-24)
(-0.1751460151 0.03520881544 0)
(-0.1869559119 -0.0001967140311 2.912088283e-23)
(-0.1930171791 -0.03889748422 4.695734453e-24)
(-0.1917809089 -0.07843880414 -1.076774135e-22)
(-0.181787367 -0.1151864401 8.003872505e-23)
(-0.1620569757 -0.1442598392 -2.419677244e-22)
(-0.132706144 -0.159854755 0)
(-0.09577884011 -0.1563111909 0)
(-0.05601630536 -0.1302980321 0)
(-0.02147858115 -0.08381130518 0)
(-0.001500383703 -0.02665514958 5.571971014e-22)
(-0.0002873904324 0.04016073789 0)
(-0.01169359256 0.09543602171 -3.49294738e-22)
(-0.02924437217 0.1294072388 8.93266139e-22)
(-0.05060945313 0.1469297821 3.617115336e-22)
(-0.07370079728 0.1519747373 0)
(-0.09745147339 0.1472756826 -3.862490199e-22)
(-0.1211069387 0.1344191058 -3.174387653e-23)
(-0.1440324286 0.1141392721 3.333068925e-22)
(-0.1655142704 0.08670003793 1.769456461e-22)
(-0.1846247972 0.05229123833 -4.060113079e-23)
(-0.2001325251 0.01141719525 1.656819745e-23)
(-0.2104621881 -0.03471418115 -8.265140904e-24)
(-0.213720797 -0.08376555265 3.371822257e-22)
(-0.2078214953 -0.131875533 0)
(-0.1908238019 -0.1732754995 2.420846237e-22)
(-0.1616335275 -0.2002592209 5.774559955e-24)
(-0.1211662318 -0.2040120587 -5.860675724e-24)
(-0.07384987328 -0.1772119031 1.548374311e-22)
(-0.02971785724 -0.118864173 -5.435233529e-24)
(-0.002179544056 -0.04005396805 0)
(-0.0002117207939 0.04671635989 0)
(-0.0112500116 0.1105497165 0)
(-0.02815624365 0.149735372 -5.022689145e-22)
(-0.04874478876 0.1701516205 -1.880976245e-23)
(-0.07100085799 0.1766255798 2.038357086e-23)
(-0.0939945028 0.1724525337 -2.014289838e-23)
(-0.1171434152 0.1594870072 -2.31686165e-23)
(-0.1400179345 0.1384804473 -3.029790655e-22)
(-0.1621328732 0.1095160432 6.698610969e-23)
(-0.1827958883 0.07245187332 4.513133397e-23)
(-0.2009835406 0.02734932177 -4.577676453e-23)
(-0.2152270109 -0.02508691811 0)
(-0.2235562042 -0.08298343208 -7.839512734e-23)
(-0.2234631998 -0.1427256337 0)
(-0.21206792 -0.1981819752 -3.739524526e-22)
(-0.1867434293 -0.2400772493 5.244880982e-22)
(-0.1464438054 -0.2560772225 0)
(-0.09394565758 -0.2331208469 -1.493922682e-22)
(-0.04021999954 -0.1639612945 1.937476588e-22)
(-0.003201099075 -0.058610606 -3.411456303e-22)
(-0.0002015421345 0.05297581273 0)
(-0.01067262426 0.1248171454 9.182797928e-22)
(-0.02628447672 0.168742332 -2.440664135e-23)
(-0.04501109119 0.1916453757 9.193268553e-22)
(-0.0649459902 0.1992919719 -2.512065073e-23)
(-0.08536630249 0.1956103162 2.838822504e-23)
(-0.1059305845 0.1827885953 -2.812908762e-23)
(-0.1264924415 0.161658293 -1.660906828e-23)
(-0.146899711 0.1321762047 -5.260194928e-22)
(-0.1668458451 0.09389647208 -8.906572012e-24)
(-0.1857303338 0.04640579643 9.660138979e-24)
(-0.2024782 -0.01023779082 3.313061312e-22)
(-0.21541549 -0.07499812777 -5.820705319e-22)
(-0.2220209941 -0.1450310932 0)
(-0.2188032241 -0.214675959 8.887252709e-22)
(-0.2016257561 -0.2740015307 -4.94081804e-22)
(-0.1668639141 -0.307581081 -1.57220072e-23)
(-0.1140219998 -0.295381085 0)
(-0.05288481251 -0.2195801787 -1.890111523e-22)
(-0.004749187008 -0.08377274869 3.360515346e-22)
(-0.0003642000078 0.0590231439 1.55099928e-23)
(-0.01049574955 0.1379880649 -8.764128897e-22)
(-0.02441391605 0.1856802929 -1.157051867e-21)
(-0.04026727466 0.2101383451 -8.628921754e-22)
(-0.05630733479 0.2182347655 0)
(-0.07214861158 0.2146189188 3.51378378e-23)
(-0.0877922692 0.2018791138 -7.294823382e-23)
(-0.1034563388 0.1810005101 5.867851853e-23)
(-0.1193984531 0.1518997048 3.021349499e-22)
(-0.1357932255 0.1139150668 -1.128190164e-23)
(-0.1526083059 0.06621428416 0)
(-0.1694522115 0.008177257364 -3.603911656e-22)
(-0.1852761303 -0.06015980869 7.51563492e-22)
(-0.1980449147 -0.1372746225 8.831666849e-22)
(-0.2043546774 -0.2189261017 -5.296591896e-22)
(-0.1990977968 -0.2959711966 5.162654928e-22)
(-0.1760605519 -0.3514071585 1.078210893e-23)
(-0.130089068 -0.3584149797 -1.09552558e-23)
(-0.06688803052 -0.2843275711 -8.21604386e-23)
(-0.007083319074 -0.1169964073 0)
(-0.0009095792532 0.06540038855 -1.911475679e-23)
(-0.01167593118 0.150281569 -1.326958564e-21)
(-0.02388885065 0.2000658536 1.094230687e-21)
(-0.03601344982 0.2244215813 6.734894259e-22)
(-0.04657314699 0.2316587122 6.014600436e-22)
(-0.05577045662 0.2272392735 6.643923377e-22)
(-0.06411253925 0.2141774162 -4.458655893e-23)
(-0.07227570672 0.193649396 -3.461322061e-22)
(-0.08096982646 0.165602819 2.152153698e-22)
(-0.09087202463 0.1292707494 0)
(-0.1025548487 0.0835308603 0)
(-0.1163623183 0.02720015834 2.655388158e-22)
(-0.1321590545 -0.04061999949 8.194331302e-23)
(-0.1489253223 -0.120012765 -2.821607479e-22)
(-0.1641285061 -0.2089299997 -5.411249911e-23)
(-0.1727878228 -0.3006991773 1.30195086e-22)
(-0.1670311712 -0.3793328313 -3.40046833e-22)
(-0.1365292641 -0.4136451152 -1.594195056e-23)
(-0.0801825057 -0.3538325477 8.204815546e-23)
(-0.01050762268 -0.1594130217 -6.032230785e-22)
(-0.002260500103 0.07348881672 0)
(-0.01580357321 0.1626521222 2.145863921e-21)
(-0.02665046261 0.2117903916 0)
(-0.03422345342 0.2333946318 -1.351801161e-21)
(-0.03759406088 0.2377765884 6.184056279e-23)
(-0.03799694411 0.2312552711 -6.193063097e-22)
(-0.0366827627 0.2171898411 -4.75626322e-22)
(-0.03489047587 0.1968934158 8.301219511e-22)
(-0.03378849714 0.170334231 -1.885690359e-22)
(-0.03449888445 0.1367221238 0)
(-0.03811584638 0.09479677106 0)
(-0.04565004007 0.04304291309 2.410618596e-23)
(-0.05790815303 -0.02013775876 -6.007179019e-22)
(-0.07514608707 -0.09620644763 -4.309551958e-22)
(-0.0964518398 -0.1855555641 4.637846175e-22)
(-0.1183463358 -0.2853567246 -6.488699115e-22)
(-0.1332715931 -0.3838385983 9.119910944e-23)
(-0.1265351312 -0.4504358129 2.937701415e-23)
(-0.08899155199 -0.4198535799 5.660477103e-22)
(-0.01526917995 -0.2111719412 6.020863393e-22)
(-0.00518090102 0.08598045032 0)
(-0.02525552423 0.1766290834 1.465580092e-22)
(-0.03483411907 0.2205960965 -4.917122833e-23)
(-0.03640020119 0.2354858628 7.642894159e-22)
(-0.03018491433 0.2343406019 -7.005344103e-22)
(-0.01916589607 0.2241603241 4.746459665e-23)
(-0.005615264023 0.208352537 -1.018605946e-22)
(0.008569486053 0.1881240823 -3.389874611e-22)
(0.02179873589 0.1633911222 2.062815329e-22)
(0.03262769006 0.1333242881 0)
(0.03958446534 0.09664089224 0)
(0.04117001939 0.05174060472 -2.902659031e-22)
(0.03578473304 -0.003255353703 0)
(0.02198175101 -0.07058356474 -5.512170888e-22)
(-0.001264930805 -0.1525735108 -1.492370355e-23)
(-0.0331047702 -0.250594949 2.559720453e-23)
(-0.06909241524 -0.3599341169 2.203108855e-22)
(-0.0922783074 -0.4575424186 4.788299081e-24)
(-0.0871809144 -0.4698129033 -5.789447758e-22)
(-0.02103127307 -0.2698972047 0)
(-0.01111631637 0.1085974965 0)
(-0.04248903269 0.1947151505 -8.848445928e-22)
(-0.04795532363 0.2258195158 -5.41102069e-22)
(-0.03919541637 0.2282135079 4.543798036e-22)
(-0.01877838146 0.2182327623 -1.70998378e-24)
(0.007664217013 0.2028219889 -4.561029029e-23)
(0.03667982411 0.1847619417 5.696656945e-22)
(0.06582986838 0.1647118007 -2.766879917e-23)
(0.09327118907 0.1423128134 -2.06977418e-22)
(0.1173890436 0.1166275046 3.142202977e-23)
(0.136546058 0.0864114618 -3.425906652e-23)
(0.1489668248 0.0501767212 -3.690583767e-23)
(0.1525274869 0.006159201276 3.205624385e-22)
(0.1449366234 -0.04796123708 6.11958806e-22)
(0.1235159101 -0.1153052622 -5.101153693e-22)
(0.08633527733 -0.2004195422 -1.616042788e-22)
(0.03199084299 -0.3067806413 1.531323356e-22)
(-0.02362126725 -0.4239836964 7.293673412e-23)
(-0.06492414503 -0.4871612583 1.913294635e-21)
(-0.02509971902 -0.3291544583 2.954994883e-21)
(-0.02004680434 0.1460727447 -4.390197024e-23)
(-0.06416406893 0.2112955826 4.417369708e-23)
(-0.05070232596 0.2177300327 1.000185247e-21)
(-0.01934101132 0.201467973 -8.270517164e-24)
(0.02414459276 0.1809075876 0)
(0.07154114657 0.1606933054 4.363701866e-23)
(0.1190702531 0.1416495258 -2.273841698e-22)
(0.1644766372 0.1233181673 -9.027916048e-23)
(0.2062250166 0.1048117249 3.680719058e-23)
(0.242964205 0.0850714064 -1.701649661e-23)
(0.2732206668 0.06296149063 3.429959948e-23)
(0.2952535294 0.0372629577 -6.592660845e-23)
(0.3066970348 0.006535090106 -9.303884566e-23)
(0.304973771 -0.03087767921 1.517038328e-22)
(0.2863935756 -0.07786289194 0)
(0.247056769 -0.1399300246 1.5055939e-22)
(0.1810921915 -0.2266299695 2.560015746e-22)
(0.09604447846 -0.3443894876 0)
(-0.006697628144 -0.4552210141 -3.675639797e-21)
(-0.01922408402 -0.3777537517 -2.892624245e-21)
(-0.02591951196 0.2276828845 -9.514197254e-22)
(-0.0399832439 0.223821656 -1.388973359e-22)
(0.03656136689 0.1810585333 -2.335573587e-22)
(0.1090502925 0.1451059004 -1.193738004e-22)
(0.1817190939 0.1172445368 -4.295806621e-23)
(0.2490090334 0.09627906281 9.783122269e-23)
(0.3100336177 0.08002509264 -1.40858424e-22)
(0.3646208716 0.06656814569 1.297169249e-22)
(0.4126251829 0.05449178616 -8.620084708e-23)
(0.4536249634 0.04270895147 1.132190304e-25)
(0.4867878098 0.03032299057 1.527736702e-23)
(0.5107450811 0.01652902777 7.997179843e-23)
(0.5236596998 0.0005365241284 -1.811117965e-22)
(0.5231797662 -0.01863372297 -1.617140455e-22)
(0.5052323159 -0.04286478184 -4.262915957e-23)
(0.4658714896 -0.07633230696 0)
(0.3952696362 -0.1286089368 -1.846487101e-22)
(0.2916070945 -0.2208468093 8.148773196e-22)
(0.1197455044 -0.3525016897 1.631603181e-21)
(0.02670547103 -0.3775497969 2.172656704e-21)
(0.2142894484 0.134744722 9.864981381e-22)
(0.2776311233 0.09870503745 0)
(0.4316592344 0.0581041493 -2.594313089e-22)
(0.5304749371 0.03846264944 -1.741658955e-22)
(0.6016965716 0.02623419019 0)
(0.6571198849 0.01831923345 -6.009053673e-23)
(0.7015213421 0.01313600734 6.377962619e-23)
(0.7376042264 0.00954212575 -1.800146568e-23)
(0.7669368152 0.006804463748 2.885959252e-23)
(0.7902106421 0.004464744772 2.31502315e-23)
(0.8074554772 0.002221321302 0)
(0.8182621161 -0.0001500731753 -2.873023071e-23)
(0.8216499576 -0.002723846392 0)
(0.8162394114 -0.005712667222 2.738132056e-23)
(0.7991333111 -0.009611381983 1.421673394e-23)
(0.7679986339 -0.01500255083 -5.799422184e-23)
(0.7106555761 -0.02502519991 -2.53566661e-22)
(0.6235183984 -0.04204285452 -6.918109399e-22)
(0.4230091019 -0.09182968127 0)
(0.2705674688 -0.1524021843 -2.119484549e-21)
)
;

boundaryField
{
    movingWall
    {
        type            fixedValue;
        value           uniform (1 0 0);
    }
    fixedWalls
    {
        type            fixedValue;
        value           uniform (0 0 0);
    }
    frontAndBack
    {
        type            empty;
    }
}


// ************************************************************************* //
