/*--------------------------------*- C++ -*----------------------------------*\
  =========                 |
  \\      /  F ield         | OpenFOAM: The Open Source CFD Toolbox
   \\    /   O peration     | Website:  https://openfoam.org
    \\  /    A nd           | Version:  13
     \\/     M anipulation  |
\*---------------------------------------------------------------------------*/
FoamFile
{
    format      ascii;
    class       volVectorField;
    location    "34";
    object      U_0;
}
// * * * * * * * * * * * * * * * * * * * * * * * * * * * * * * * * * * * * * //

dimensions      [0 1 -1 0 0 0 0];

internalField   nonuniform List<vector> 
400
(
(0.0001792425598 -0.0001830309397 0)
(-0.0001423171323 3.277420402e-05 0)
(-0.001529461058 0.0002691374581 0)
(-0.003764842771 0.0004192639147 0)
(-0.006503695738 0.0004984593843 0)
(-0.009446795839 0.0005282554936 0)
(-0.01234601781 0.0005184485687 0)
(-0.01496994537 0.0004681182788 0)
(-0.01708067449 0.000370698098 0)
(-0.01843434867 0.0002209690236 0)
(-0.01880791765 2.221087109e-05 0)
(-0.01804776911 -0.000208353236 0)
(-0.01612838686 -0.0004371493662 0)
(-0.01320277888 -0.0006181186946 0)
(-0.009622811447 -0.0007031036052 0)
(-0.005909311399 -0.0006573470688 0)
(-0.002663135023 -0.0004743910688 0)
(-0.0004225572547 -0.0001842029635 0)
(0.0005271942145 0.0001329398053 0)
(0.0003056695482 0.0002987584352 0)
(-4.938318876e-05 0.0001411220147 0)
(-0.00206332979 0.001920307092 0)
(-0.006380064623 0.003731234733 0)
(-0.01247522555 0.004982861085 0)
(-0.01959853378 0.005640993251 0)
(-0.02708438545 0.005781447854 0)
(-0.03433301436 0.005454968959 0)
(-0.04076814032 0.004668576798 0)
(-0.0458161036 0.003413037218 0)
(-0.04892444473 0.001707552949 0)
(-0.04962469135 -0.0003565977925 0)
(-0.04762839857 -0.002587822187 0)
(-0.04293444947 -0.004692841529 0)
(-0.03591555239 -0.006312539703 0)
(-0.02734691712 -0.007097109591 0)
(-0.01834341895 -0.006810057843 0)
(-0.01018402763 -0.005433882615 0)
(-0.004031496126 -0.003245360154 0)
(-0.0005868777808 -0.0008687726754 0)
(0.0002169041214 0.0005760960525 0)
(-0.0003521679619 0.001707786352 0)
(-0.004442688615 0.006412445061 0)
(-0.01175648992 0.01058144091 0)
(-0.0213929343 0.01340011041 0)
(-0.03226782117 0.01482002571 0)
(-0.04347689829 0.01496780551 0)
(-0.05418932457 0.01393302568 0)
(-0.06359693862 0.01173896001 0)
(-0.07090567046 0.008399283126 0)
(-0.0753706278 0.00400718853 0)
(-0.07637703124 -0.001180897251 0)
(-0.0735543375 -0.006695149807 0)
(-0.06690087418 -0.01185762394 0)
(-0.05688856618 -0.01585956799 0)
(-0.04450965635 -0.01791743847 0)
(-0.03122202568 -0.01749242974 0)
(-0.01875298456 -0.01452439695 0)
(-0.008759033199 -0.009605307012 0)
(-0.002418052793 -0.004053924728 0)
(3.121696144e-05 6.042883679e-06 0)
(-0.0006264182062 0.004555201036 0)
(-0.006738558054 0.01354853018 0)
(-0.01692704779 0.0207284882 0)
(-0.0298471898 0.02539389709 0)
(-0.04407863511 0.02760853247 0)
(-0.05853802519 0.02758956715 0)
(-0.07224980568 0.02547649198 0)
(-0.08426579894 0.02131644713 0)
(-0.09365554633 0.01516086006 0)
(-0.09954376421 0.007202117305 0)
(-0.1011924026 -0.002102618595 0)
(-0.09811699614 -0.01195803881 0)
(-0.09022231302 -0.02123557887 0)
(-0.07793597186 -0.02858354546 0)
(-0.06230518897 -0.03265920532 0)
(-0.04500122536 -0.03247778779 0)
(-0.02815852541 -0.02781640583 0)
(-0.01401158772 -0.01954104694 0)
(-0.004416233921 -0.009719278502 0)
(-0.0001285399937 -0.001533170525 0)
(-0.0008626701012 0.008568495197 0)
(-0.008793907249 0.02310511943 0)
(-0.02159519474 0.03384875853 0)
(-0.03748551755 0.04053435958 0)
(-0.05472902047 0.04350911882 0)
(-0.07210766232 0.04315580056 0)
(-0.08856669885 0.03969024502 0)
(-0.1030896197 0.03318904692 0)
(-0.1146703803 0.02373746331 0)
(-0.1223358343 0.01161582112 0)
(-0.125212933 -0.002535015158 0)
(-0.1226360981 -0.01760821602 0)
(-0.1142939688 -0.03201518886 0)
(-0.1004080257 -0.04379868833 0)
(-0.08191492708 -0.05091503881 0)
(-0.06058688347 -0.05171359085 0)
(-0.03897251767 -0.04556300465 0)
(-0.02005243458 -0.0334340068 0)
(-0.006649433412 -0.01814334044 0)
(-0.0002744122637 -0.004097999538 0)
(-0.001057712845 0.01359060178 0)
(-0.01053177149 0.03478741937 0)
(-0.02557738549 0.04959870197 0)
(-0.04403620937 0.05846576329 0)
(-0.06390776763 0.06219080125 0)
(-0.08388662461 0.06141277801 0)
(-0.1028960547 0.0564604384 0)
(-0.1199123198 0.04744187456 0)
(-0.1339051031 0.0344521678 0)
(-0.1438292068 0.01781183471 0)
(-0.1486621466 -0.001720835092 0)
(-0.1474912881 -0.02279526447 0)
(-0.1396665502 -0.0434032374 0)
(-0.1250296073 -0.06094460264 0)
(-0.1042066378 -0.07251189372 0)
(-0.07890037975 -0.07547889412 0)
(-0.05202345537 -0.06840250252 0)
(-0.02746673568 -0.05202277394 0)
(-0.009399236759 -0.02985137876 0)
(-0.0004490410347 -0.007837909611 0)
(-0.001204438374 0.01943479642 0)
(-0.01188099985 0.04822253773 0)
(-0.02870246581 0.06754279467 0)
(-0.04921778698 0.0787581337 0)
(-0.07123018389 0.08327853679 0)
(-0.09339699012 0.08209132387 0)
(-0.1146732799 0.07567955225 0)
(-0.1340863946 0.06418237383 0)
(-0.1506364306 0.0476659355 0)
(-0.163245562 0.02641495082 0)
(-0.1707523933 0.001197332603 0)
(-0.1719674673 -0.02651530823 0)
(-0.1658129928 -0.05439282752 0)
(-0.1515853701 -0.07920940669 0)
(-0.1293604182 -0.09705221788 0)
(-0.1004945817 -0.1039514399 0)
(-0.06806179894 -0.09707114669 0)
(-0.03691898271 -0.07632478358 0)
(-0.0130270856 -0.0456933889 0)
(-0.0007036264934 -0.01308142663 0)
(-0.001294476061 0.02587733037 0)
(-0.01277193917 0.06295265873 0)
(-0.03080193895 0.08713110912 0)
(-0.05273225573 0.1008502006 0)
(-0.07624166973 0.1062541973 0)
(-0.09999782796 0.1047669488 0)
(-0.1230378559 0.0970716764 0)
(-0.1444993297 0.08334126344 0)
(-0.1634787027 0.06357055692 0)
(-0.1789331745 0.03791899766 0)
(-0.1896234362 0.007029157502 0)
(-0.194117 -0.02767549368 0)
(-0.1908885143 -0.06371324845 0)
(-0.1785757597 -0.09734746221 0)
(-0.1564535727 -0.1236137913 0)
(-0.1251421942 -0.1368552444 0)
(-0.08744614052 -0.1321108029 0)
(-0.04899039408 -0.1074981458 0)
(-0.01792903643 -0.0668418613 0)
(-0.001101081427 -0.02036127445 0)
(-0.001323137435 0.03266052259 0)
(-0.01315811516 0.07844238431 0)
(-0.03174569824 0.1076974319 0)
(-0.05431548449 0.1240225725 0)
(-0.0784859003 0.1303951842 0)
(-0.1029752911 0.128760062 0)
(-0.1269481952 0.1200542806 0)
(-0.1497124736 0.1044991177 0)
(-0.1705399351 0.08198759981 0)
(-0.188522889 0.0524718536 0)
(-0.2024620914 0.01632993528 0)
(-0.2108023946 -0.0252601797 0)
(-0.2116578435 -0.06991193057 0)
(-0.2029969812 -0.1136274697 0)
(-0.1831007862 -0.1505283745 0)
(-0.1514067194 -0.1730881141 0)
(-0.1097756274 -0.173457885 0)
(-0.06399011144 -0.1465635423 0)
(-0.0245067321 -0.09471480461 0)
(-0.001724215195 -0.03042819458 0)
(-0.001296764521 0.03951438271 0)
(-0.01305451 0.09411017176 0)
(-0.03150918935 0.1284781341 0)
(-0.05383208628 0.1473913528 0)
(-0.07763057762 0.1547376259 0)
(-0.1017078309 0.1530670764 0)
(-0.1253974844 0.143636144 0)
(-0.1482367543 0.1267495412 0)
(-0.1697588797 0.1021953317 0)
(-0.1893146401 0.06966729164 0)
(-0.2059114137 0.02916480839 0)
(-0.2180739159 -0.01857859248 0)
(-0.2237660927 -0.07156919378 0)
(-0.2204320981 -0.12594249 0)
(-0.2053180955 -0.1752975652 0)
(-0.1763015466 -0.2103845344 0)
(-0.1334760501 -0.2199173568 0)
(-0.08167817581 -0.1939325515 0)
(-0.03311261029 -0.1307880777 0)
(-0.002686705025 -0.04425943971 0)
(-0.001242645867 0.04620393379 0)
(-0.01258923098 0.109395913 0)
(-0.03026243944 0.1486638102 0)
(-0.05139884855 0.1699339071 0)
(-0.07362954391 0.1780789669 0)
(-0.09588125867 0.1763444791 0)
(-0.1177026648 0.166383733 0)
(-0.1389178471 0.1486423156 0)
(-0.1594032184 0.1228360354 0)
(-0.1788916975 0.08839813651 0)
(-0.1967811875 0.04489070825 0)
(-0.2119258273 -0.007550173468 0)
(-0.2224558648 -0.06764588753 0)
(-0.2256137189 -0.1321393327 0)
(-0.2178117541 -0.1947709714 0)
(-0.1952334459 -0.245183588 0)
(-0.1554546708 -0.2686534538 0)
(-0.1008867379 -0.24874389 0)
(-0.04392264866 -0.1762324286 0)
(-0.004143238492 -0.06304904725 0)
(-0.001222573051 0.05261047692 0)
(-0.0120683138 0.1238725898 0)
(-0.02847054006 0.1674879033 0)
(-0.04751192348 0.1905499489 0)
(-0.06688012776 0.1990263631 0)
(-0.08569418422 0.1969593384 0)
(-0.1037856582 0.1864796366 0)
(-0.1213251685 0.1682427743 0)
(-0.1385971016 0.1419544771 0)
(-0.155808943 0.1068364436 0)
(-0.172897189 0.06202625866 0)
(-0.189303623 0.006991126711 0)
(-0.2036621588 -0.0579200025 0)
(-0.2134662516 -0.1305681496 0)
(-0.2148042545 -0.2056772041 0)
(-0.2024346698 -0.2729002964 0)
(-0.1710430526 -0.3149428025 0)
(-0.1191286503 -0.3081226945 0)
(-0.05668840547 -0.2313005454 0)
(-0.006292002376 -0.08814868919 0)
(-0.001354571183 0.05885987391 0)
(-0.01206018394 0.1374036363 0)
(-0.02699529056 0.1843400106 0)
(-0.0431424649 0.2081399648 0)
(-0.05831280126 0.2160734624 0)
(-0.07195993149 0.2130919185 0)
(-0.08431481462 0.2018638434 0)
(-0.09596496479 0.1833078253 0)
(-0.1076433669 0.1571863934 0)
(-0.1200706992 0.1225926398 0)
(-0.1337941263 0.07832406607 0)
(-0.1489753835 0.02322583664 0)
(-0.1650641092 -0.04334340817 0)
(-0.1803291466 -0.1207287691 0)
(-0.1912429226 -0.205468906 0)
(-0.1919077509 -0.2887108688 0)
(-0.1744186715 -0.3524705727 0)
(-0.1323957441 -0.3666414676 0)
(-0.07034891257 -0.2944299017 0)
(-0.009355854313 -0.1208848175 0)
(-0.001853594223 0.06552081271 0)
(-0.01351475542 0.1503382886 0)
(-0.02718046887 0.198866077 0)
(-0.03973983186 0.2216526664 0)
(-0.04931137101 0.2276557561 0)
(-0.0559634301 0.2228377401 0)
(-0.06051893991 0.2103995352 0)
(-0.06407009331 0.1915165682 0)
(-0.06781221202 0.1660405197 0)
(-0.07295212573 0.1330174453 0)
(-0.08061427923 0.091034894 0)
(-0.09169543957 0.03847826158 0)
(-0.1066014263 -0.02617141081 0)
(-0.1247755993 -0.1037768018 0)
(-0.1438786406 -0.1932492099 0)
(-0.1585466629 -0.288742065 0)
(-0.1594239959 -0.3743118238 0)
(-0.1353064843 -0.4163676004 0)
(-0.0825462956 -0.3611935313 0)
(-0.01349158489 -0.1620928836 0)
(-0.003091379151 0.07389759956 0)
(-0.01791095125 0.1637116323 0)
(-0.03083405351 0.2109704036 0)
(-0.03896304243 0.2300074121 0)
(-0.04121250545 0.2320943425 0)
(-0.03877234873 0.2242154976 0)
(-0.03333809982 0.2099573186 0)
(-0.02660475263 0.1906341693 0)
(-0.02021598314 0.1661445739 0)
(-0.01578342639 0.1355279511 0)
(-0.01489126112 0.09729000169 0)
(-0.01905334333 0.04958073649 0)
(-0.0295759526 -0.009677671319 0)
(-0.04722431994 -0.08255377011 0)
(-0.07145503327 -0.1703406482 0)
(-0.09877634332 -0.2712436564 0)
(-0.1203105753 -0.37439551 0)
(-0.1214523465 -0.4477673347 0)
(-0.0891168978 -0.4236336099 0)
(-0.01848069356 -0.2113119967 0)
(-0.005584094684 0.08652586231 0)
(-0.02724305094 0.1793365589 0)
(-0.03967131393 0.2204540266 0)
(-0.04145107514 0.2316328305 0)
(-0.0335393639 0.227215401 0)
(-0.019099491 0.2149036627 0)
(-0.001027862148 0.1982622902 0)
(0.01831888174 0.178465178 0)
(0.03691469654 0.1553173118 0)
(0.05287497595 0.1278315147 0)
(0.06432773943 0.09452552045 0)
(0.06934235278 0.05353968333 0)
(0.0659245464 0.002639660411 0)
(0.05214362468 -0.06084979708 0)
(0.02660096795 -0.1399676114 0)
(-0.01007541797 -0.2370471493 0)
(-0.05180979096 -0.3487576961 0)
(-0.08351307904 -0.4511655368 0)
(-0.08360282343 -0.4707103866 0)
(-0.0231201271 -0.266416248 0)
(-0.009894816714 0.1087404579 0)
(-0.04305887758 0.1995077629 0)
(-0.05240444432 0.2255504939 0)
(-0.04209681861 0.2229953734 0)
(-0.01830512014 0.2092320501 0)
(0.0127213173 0.1914817234 0)
(0.04682014347 0.1724298638 0)
(0.08116718334 0.1526289514 0)
(0.1136000875 0.1315551729 0)
(0.1422138571 0.1081287669 0)
(0.1650987778 0.080942037 0)
(0.1801686595 0.04831343457 0)
(0.1850419328 0.008220984401 0)
(0.1770025859 -0.04194636771 0)
(0.153094455 -0.1058708461 0)
(0.110941381 -0.188833971 0)
(0.05186153475 -0.2957829534 0)
(-0.012846149 -0.4175507761 0)
(-0.05692484778 -0.4887405128 0)
(-0.02467513951 -0.3238451124 0)
(-0.01779614351 0.1517332915 0)
(-0.06131548111 0.2236525463 0)
(-0.05235323306 0.2176079273 0)
(-0.01454369633 0.1948129558 0)
(0.03511763737 0.1708883315 0)
(0.08820099472 0.1488906661 0)
(0.1407372056 0.1292142122 0)
(0.1904511581 0.1112598967 0)
(0.2357535107 0.09397906099 0)
(0.275244042 0.07618055645 0)
(0.307388069 0.05661740974 0)
(0.330310971 0.03395107302 0)
(0.3416261231 0.006652704921 0)
(0.3383264364 -0.02726884139 0)
(0.3165917415 -0.07097309617 0)
(0.2718223508 -0.1303874893 0)
(0.1998138329 -0.2164026541 0)
(0.1027581744 -0.3382978294 0)
(0.004220344775 -0.4567275702 0)
(-0.01599225896 -0.3692371429 0)
(-0.02419901847 0.2083205863 0)
(-0.03787559162 0.2304127045 0)
(0.03729873895 0.1765447935 0)
(0.1250327405 0.1368146616 0)
(0.205724128 0.1089823869 0)
(0.2778058368 0.08812010743 0)
(0.3419590159 0.07202802401 0)
(0.3984861762 0.05911356635 0)
(0.4474482586 0.0479896574 0)
(0.4886152828 0.03752161643 0)
(0.5213295632 0.02675471965 0)
(0.5443489501 0.0148331254 0)
(0.5557782938 0.0008773398496 0)
(0.5529519088 -0.01618793454 0)
(0.5320400489 -0.0381998273 0)
(0.4875617826 -0.06909265486 0)
(0.4110260077 -0.1190795545 0)
(0.2908015961 -0.2093537077 0)
(0.133080357 -0.3382922824 0)
(0.03873909178 -0.3403470606 0)
(0.2418998879 0.1091493391 0)
(0.3135044203 0.09714083033 0)
(0.4443910193 0.05697783987 0)
(0.5496893405 0.03510390237 0)
(0.6240779301 0.02372395974 0)
(0.6795589563 0.01669007421 0)
(0.7233702945 0.01196291054 0)
(0.7586231681 0.00868447792 0)
(0.7868772217 0.006255963086 0)
(0.8089353831 0.004242505854 0)
(0.8249763954 0.002346788489 0)
(0.8346243745 0.0003612531063 0)
(0.8370090959 -0.001891199605 0)
(0.8307018635 -0.004576545864 0)
(0.8133879277 -0.008020900766 0)
(0.7811641963 -0.01288924615 0)
(0.725728999 -0.02124530287 0)
(0.6298873994 -0.03810921598 0)
(0.45927213 -0.08556748365 0)
(0.3048903539 -0.1257002221 0)
)
;

boundaryField
{
    movingWall
    {
        type            calculated;
        value           uniform (1 0 0);
    }
    fixedWalls
    {
        type            calculated;
        value           uniform (0 0 0);
    }
    frontAndBack
    {
        type            empty;
    }
}


// ************************************************************************* //
