/*--------------------------------*- C++ -*----------------------------------*\
  =========                 |
  \\      /  F ield         | OpenFOAM: The Open Source CFD Toolbox
   \\    /   O peration     | Website:  https://openfoam.org
    \\  /    A nd           | Version:  13
     \\/     M anipulation  |
\*---------------------------------------------------------------------------*/
FoamFile
{
    format      ascii;
    class       vectorField;
    location    "14.11";
    object      U_all;
}
// * * * * * * * * * * * * * * * * * * * * * * * * * * * * * * * * * * * * * //


400
(
(1.037575013e-05 -3.6744099e-05 0)
(-0.0006645994853 0.0004119649053 -1.537374747e-23)
(-0.002176617229 0.0009164776956 0)
(-0.004029746265 0.001306616499 0)
(-0.005944077528 0.001527623826 6.717241581e-25)
(-0.007726283105 0.00156220759 4.139379048e-24)
(-0.009241268419 0.001416751035 -6.912141496e-24)
(-0.0103884732 0.001114581218 8.028544335e-24)
(-0.01108816594 0.0006931642583 -2.139252313e-25)
(-0.01128044346 0.0002025500806 -4.064337629e-24)
(-0.01093017223 -0.0002985600725 5.88481241e-24)
(-0.01003847527 -0.0007442513668 -5.999934916e-23)
(-0.008655632095 -0.001071583801 -6.63419858e-23)
(-0.006888970778 -0.00122936693 -7.875751007e-23)
(-0.004906661407 -0.001190204739 4.638236339e-24)
(-0.002931014409 -0.0009613796626 -4.213095706e-24)
(-0.001213939715 -0.0005926989044 -2.054801939e-22)
(-2.843099689e-05 -0.0001728498106 0)
(0.000511454999 0.0001684800334 1.786348843e-25)
(0.0002210368635 0.0003036051467 -6.199941802e-24)
(-0.0002620978986 0.0008266935044 1.374634014e-25)
(-0.002689551009 0.003367916404 1.547040777e-23)
(-0.006870367421 0.005575547096 1.53522029e-25)
(-0.01188751877 0.006971102868 -8.337653815e-25)
(-0.01704213263 0.007513998068 1.136322208e-24)
(-0.02185745729 0.007256891262 1.266220693e-23)
(-0.02597347107 0.006291420635 1.807892403e-24)
(-0.02911625583 0.004733853141 -7.768593845e-24)
(-0.03107355557 0.002728902497 1.042614049e-23)
(-0.03169359336 0.0004565897615 4.590257175e-24)
(-0.03089212198 -0.001868246229 -6.407560146e-24)
(-0.02867762511 -0.003998244949 2.915322175e-24)
(-0.02518072481 -0.00567867004 3.933940399e-23)
(-0.02066846981 -0.006677539999 -1.988372289e-24)
(-0.01555252138 -0.006828822493 3.827107218e-24)
(-0.01037041584 -0.006080583355 -1.002556159e-22)
(-0.005731257386 -0.004539857847 9.935968136e-23)
(-0.002241526655 -0.002510992596 -4.509435093e-25)
(-0.0001892720177 -0.0005121904178 4.623168912e-25)
(8.232517845e-05 0.0006021269324 0)
(-0.000416115021 0.002920839994 -2.886560968e-25)
(-0.004620230563 0.008756230264 1.680648807e-23)
(-0.0113044738 0.01316630897 -8.250576966e-24)
(-0.01921357321 0.01570363209 -2.019356507e-25)
(-0.02731469599 0.01643941584 1.983813101e-25)
(-0.03491798867 0.0155624109 1.827927781e-26)
(-0.0414821889 0.01329530591 -1.625602479e-24)
(-0.04658438202 0.009878821657 -4.835195544e-25)
(-0.04989133162 0.005588905483 -1.091746124e-23)
(-0.05115906651 0.0007591158975 0)
(-0.05024234833 -0.004201727601 0)
(-0.04713031598 -0.008827056251 2.71328058e-23)
(-0.04198910168 -0.01260943509 2.857811811e-23)
(-0.03518504277 -0.01506105197 -1.682808868e-24)
(-0.02730160982 -0.01579417095 4.981406104e-23)
(-0.01911847289 -0.01462163192 9.695570015e-23)
(-0.01153798438 -0.01166361028 4.305786661e-23)
(-0.005460250251 -0.007443198708 5.256885217e-25)
(-0.001453291847 -0.00294508449 4.824206834e-26)
(-9.075230967e-05 0.0002144736672 0)
(-0.0004988573646 0.006011853866 -4.195376891e-23)
(-0.006362497404 0.01627632801 -1.670677124e-23)
(-0.01543923307 0.02342272834 8.176113968e-24)
(-0.026120097 0.02728473729 0)
(-0.03706661833 0.02816423934 0)
(-0.04741497116 0.02644841789 0)
(-0.05647825944 0.02252310428 -6.055893143e-26)
(-0.0637069362 0.01676895314 -1.795858086e-24)
(-0.06865133265 0.009601472213 0)
(-0.07095310324 0.001517757567 1.746183858e-24)
(-0.07037334215 -0.006866815679 2.87560725e-25)
(-0.06682863076 -0.01482565698 -2.883659105e-25)
(-0.06044178203 -0.02154005139 0)
(-0.05160184469 -0.02618106812 4.266065626e-23)
(-0.04099832348 -0.02803400698 -4.813475106e-23)
(-0.02961950177 -0.02667017424 -2.930623003e-23)
(-0.01868067137 -0.02214575156 -4.296593418e-23)
(-0.009463439377 -0.01518732128 7.750982947e-25)
(-0.002971439031 -0.007297519245 9.353275488e-23)
(-0.0002311940087 -0.0008772370898 0)
(-0.0005278117057 0.0100358756 4.2158093e-23)
(-0.00793381511 0.02579867994 4.79402796e-25)
(-0.01927886474 0.03621549245 -4.684542722e-25)
(-0.03262874926 0.04161603739 0)
(-0.0463767167 0.04265961096 7.671258641e-25)
(-0.05951561431 0.03999389151 -7.564898035e-25)
(-0.07124305329 0.03418781974 3.60223434e-23)
(-0.08090087224 0.02575740495 1.770003766e-23)
(-0.08792065929 0.01524126042 5.961562454e-24)
(-0.09180939156 0.003282930954 -1.748218276e-24)
(-0.09217660048 -0.00930726679 0)
(-0.08878286351 -0.02152144267 4.567756833e-25)
(-0.08161562703 -0.03217748116 1.086068861e-23)
(-0.07098369299 -0.04000612431 -4.491146704e-23)
(-0.05759995066 -0.0438201614 2.0307447e-24)
(-0.04263091683 -0.04277604399 4.565079081e-23)
(-0.02765919511 -0.03670693713 -4.412353872e-25)
(-0.01450325795 -0.02645515199 0)
(-0.004844722376 -0.01406233587 5.394986001e-23)
(-0.0003625366241 -0.002852569921 -2.512260607e-22)
(-0.0005238469736 0.01491017925 9.827373953e-23)
(-0.009323015137 0.03716943163 -4.910037505e-25)
(-0.02275093232 0.05140287978 0)
(-0.0386136844 0.05861146532 0)
(-0.05508590462 0.05993407248 -8.668062858e-23)
(-0.07105319159 0.05633765337 -8.416033303e-23)
(-0.0856299595 0.04858448311 -3.989991473e-23)
(-0.09807026766 0.03730307777 -1.460645576e-23)
(-0.1076886363 0.02311251077 -5.121812684e-24)
(-0.1138327061 0.006753305102 -7.962996248e-24)
(-0.1159061535 -0.01080387704 6.361251182e-24)
(-0.1134267021 -0.02828768063 8.362342785e-24)
(-0.1061295267 -0.04411503031 -1.86922735e-23)
(-0.09411055488 -0.05646887567 2.609214595e-24)
(-0.07798275696 -0.06349804543 0)
(-0.05901949221 -0.06367915981 -1.762968223e-23)
(-0.03920450068 -0.0563377216 3.984873412e-26)
(-0.02107057531 -0.04222966105 0)
(-0.007294209864 -0.0239264197 -1.472313233e-22)
(-0.0005191109803 -0.005921134194 5.944577039e-22)
(-0.0004966615896 0.02052515671 -9.760329252e-23)
(-0.01047491776 0.05016374072 2.820627348e-22)
(-0.02569777613 0.06873698822 1.520025736e-22)
(-0.04380162526 0.07806848016 3.59686103e-24)
(-0.06280099318 0.07988432526 -7.275593277e-23)
(-0.08151950161 0.07552212184 8.954342397e-23)
(-0.09902828874 0.06593911058 -3.553421347e-24)
(-0.1145248987 0.05183881483 -1.70260196e-24)
(-0.1272234932 0.03385559931 2.482806021e-24)
(-0.1363068347 0.0127467315 7.185269955e-24)
(-0.1409372982 -0.0104366559 -6.27288111e-24)
(-0.1403159094 -0.03421581287 -9.276350453e-24)
(-0.1338078367 -0.05661062951 -3.237843822e-23)
(-0.1211364135 -0.07517089883 -3.316970929e-23)
(-0.1026303831 -0.08716847085 4.938127231e-25)
(-0.07950798273 -0.09004293507 0)
(-0.05409506975 -0.0821568298 0)
(-0.02977724847 -0.06377742861 -2.82262999e-24)
(-0.01062858526 -0.03788620696 2.885228933e-24)
(-0.0007318150882 -0.01048119275 1.021822976e-22)
(-0.000446897184 0.0267222573 0)
(-0.01130106505 0.06445109999 1.991841384e-22)
(-0.02789694982 0.08782416984 8.916558203e-23)
(-0.04779735214 0.09961070022 0)
(-0.06892287088 0.1022130426 1.559321618e-22)
(-0.09008590745 0.09738408951 0)
(-0.1103625969 0.08627455194 -1.41589296e-22)
(-0.1289406753 0.06961962081 6.449098049e-24)
(-0.1449762209 0.04799061054 0)
(-0.1575182411 0.02205664583 0)
(-0.1654967822 -0.007170186852 -1.350671179e-24)
(-0.1677668514 -0.0381120297 -9.076854963e-25)
(-0.163237897 -0.06847219697 1.460362691e-22)
(-0.1510996813 -0.09515226544 -4.672134934e-23)
(-0.1311548229 -0.1143720508 -2.469326648e-24)
(-0.1042769604 -0.1221272312 1.448738456e-24)
(-0.07289558805 -0.1151685415 -1.47159142e-24)
(-0.04123665601 -0.09254840221 0)
(-0.01520889909 -0.0572492296 3.152964542e-24)
(-0.001040272293 -0.01710700099 -9.993282872e-22)
(-0.0003751844934 0.03328851362 0)
(-0.01171442637 0.07957789345 -1.123627392e-22)
(-0.02911471117 0.1080962987 -6.162125823e-22)
(-0.05015707941 0.1226351592 -3.735869879e-22)
(-0.07273377326 0.1263432931 0)
(-0.09569675921 0.1214312431 4.091472871e-22)
(-0.1181810732 0.1092481491 1.249882747e-22)
(-0.1394272876 0.09052618087 -5.528352739e-24)
(-0.1586068408 0.06569992724 5.500990499e-24)
(-0.1747156457 0.03523937555 0)
(-0.1865220324 -2.762766703e-05 2.882667479e-23)
(-0.1925908652 -0.03860289295 4.631326154e-24)
(-0.1913731395 -0.07803881254 -1.058259109e-22)
(-0.1814095377 -0.1147078079 7.83194917e-23)
(-0.1617222683 -0.143737 -2.378490427e-22)
(-0.1324293825 -0.1593308937 0)
(-0.09557423572 -0.1558377065 0)
(-0.05589196345 -0.1299288804 0)
(-0.02142793177 -0.08358867671 0)
(-0.001495612167 -0.0265899131 5.501729729e-22)
(-0.0002900059773 0.03997068069 0)
(-0.01167577611 0.09498761807 -3.477152442e-22)
(-0.02919113504 0.1288146668 8.891818648e-22)
(-0.05051029867 0.1462874721 3.598415234e-22)
(-0.07355342739 0.1513568188 0)
(-0.09725959117 0.1467371249 -3.836420917e-22)
(-0.1208783613 0.1339979245 -3.151575049e-23)
(-0.143776947 0.113858875 3.309280258e-22)
(-0.1652417544 0.08657135796 1.756199883e-22)
(-0.184343757 0.05231490197 -4.029017127e-23)
(-0.1998492305 0.01158555306 1.64984169e-23)
(-0.2101808247 -0.03441537399 -8.182440854e-24)
(-0.2134442933 -0.08335542309 3.342240911e-22)
(-0.2075533992 -0.1313776737 0)
(-0.1905709504 -0.1727195073 2.37963944e-22)
(-0.1614078798 -0.1996839189 5.651461487e-24)
(-0.1209846503 -0.2034690361 -5.735741821e-24)
(-0.07372931303 -0.176764873 1.509723993e-22)
(-0.02966391953 -0.1185760198 -5.321288615e-24)
(-0.002174141529 -0.03996026864 0)
(-0.0002161732451 0.04652203352 0)
(-0.01125363507 0.1100870316 0)
(-0.02815124843 0.1491202396 -5.000111674e-22)
(-0.04872225215 0.1694830288 -1.872387885e-23)
(-0.07095727148 0.1759827109 2.027103805e-23)
(-0.09393141993 0.1718942031 -2.003169394e-23)
(-0.1170660916 0.159053096 -2.301813598e-23)
(-0.1399332905 0.1381941472 -3.007999751e-22)
(-0.1620472872 0.1093861389 6.677818797e-23)
(-0.1827133207 0.07247567885 4.478189622e-23)
(-0.2009043656 0.0275156099 -4.541200412e-23)
(-0.2151480632 -0.02479470475 0)
(-0.2234713634 -0.08258529311 -7.714980828e-23)
(-0.2233658201 -0.1422414903 0)
(-0.2119549163 -0.197633953 -3.709622866e-22)
(-0.18661906 -0.2394943059 5.192576656e-22)
(-0.1463224788 -0.2555029749 0)
(-0.09384995044 -0.2326206073 -1.456418764e-22)
(-0.04016962735 -0.1636160255 1.898755493e-22)
(-0.003195354516 -0.05848767267 -3.372915369e-22)
(-0.0002075575301 0.05278992381 0)
(-0.01069907508 0.1243663008 9.147746804e-22)
(-0.02633207851 0.1681360869 -2.430801333e-23)
(-0.0450732056 0.1909826794 9.156234403e-22)
(-0.06501783441 0.1986547443 -2.500785935e-23)
(-0.085446675 0.1950601305 2.823834486e-23)
(-0.1060212695 0.1823665982 -2.798057519e-23)
(-0.1265966802 0.1613869732 -1.651398501e-23)
(-0.1470198598 0.1320613003 -5.230386521e-22)
(-0.1669812238 0.0939308205 -8.85524543e-24)
(-0.1858759955 0.04657283731 9.605487815e-24)
(-0.2026257057 -0.009959568975 3.297176971e-22)
(-0.2155510241 -0.07462908198 -5.788576918e-22)
(-0.2221280077 -0.1445897294 0)
(-0.2188682681 -0.2141768839 8.829954024e-22)
(-0.2016423038 -0.2734607011 -4.89166287e-22)
(-0.1668382578 -0.3070265866 -1.556594127e-23)
(-0.1139754941 -0.2948685721 0)
(-0.05284784613 -0.2191988184 -1.852043369e-22)
(-0.004743712609 -0.08362403669 3.322644357e-22)
(-0.0003713629939 0.05885841001 1.545203764e-23)
(-0.01054397312 0.1375757673 -8.730684318e-22)
(-0.02451296309 0.185115476 -1.1531574e-21)
(-0.04041332242 0.2095147671 -8.594179347e-22)
(-0.05649411759 0.2176341204 0)
(-0.07237119747 0.2141039891 3.497860625e-23)
(-0.08804739019 0.2014916161 -7.26105611e-23)
(-0.1037421531 0.180762362 5.840058842e-23)
(-0.1197123573 0.1518133587 3.005574903e-22)
(-0.1361299119 0.1139691263 -1.122887487e-23)
(-0.1529593636 0.066386963 0)
(-0.1698038468 0.008441916719 -3.586384361e-22)
(-0.1856112359 -0.05982704359 7.485024703e-22)
(-0.198344057 -0.1368929337 8.800693029e-22)
(-0.204596641 -0.2185049749 -5.267595661e-22)
(-0.199265891 -0.2955144393 5.139230528e-22)
(-0.1761496937 -0.3509237141 1.065044414e-23)
(-0.1301114543 -0.3579406761 -1.082147724e-23)
(-0.0668756235 -0.2839436423 -8.543281806e-23)
(-0.007079204668 -0.1168309892 0)
(-0.0009174076265 0.0652681403 -1.905237049e-23)
(-0.0117424958 0.1499323888 -1.323122113e-21)
(-0.02403259649 0.199572919 1.090566237e-21)
(-0.03623373439 0.2238681187 6.714964933e-22)
(-0.04686208354 0.2311225361 5.995828424e-22)
(-0.056118394 0.2267820898 6.621473203e-22)
(-0.06450909239 0.2138402812 -4.441018369e-23)
(-0.07271245173 0.1934546402 -3.448886226e-22)
(-0.08143801074 0.1655498225 2.144483881e-22)
(-0.09136060001 0.1293459847 0)
(-0.10305249 0.08370947724 0)
(-0.1168552358 0.0274522515 2.648028251e-22)
(-0.1326315096 -0.04032352248 8.218779708e-23)
(-0.1493586321 -0.1196934402 -2.805917316e-22)
(-0.1645012154 -0.2085962266 -5.395379906e-23)
(-0.1730785137 -0.3003477542 1.306380098e-22)
(-0.1672253946 -0.3789560977 -3.383521191e-22)
(-0.1366252429 -0.4132555072 -1.734411773e-23)
(-0.08020293928 -0.3534864799 8.531606136e-23)
(-0.01050640792 -0.1592455994 -6.053078987e-22)
(-0.002268341786 0.07339763316 0)
(-0.0158823491 0.1623855994 2.140074908e-21)
(-0.02682613792 0.2113943012 0)
(-0.03449887048 0.2329366928 -1.34824751e-21)
(-0.03796016013 0.2373265337 6.207640748e-23)
(-0.03843942753 0.230870485 -6.172045657e-22)
(-0.03718220625 0.216908415 -4.741631465e-22)
(-0.03543143282 0.1967436468 8.273764103e-22)
(-0.03435608907 0.1703084808 -1.878893182e-22)
(-0.03507493399 0.136808773 0)
(-0.03868689602 0.09497158269 0)
(-0.04620319166 0.04327573754 2.422976539e-23)
(-0.05843271363 -0.01987633448 -5.9924883e-22)
(-0.07562943002 -0.09594291978 -4.2992125e-22)
(-0.09687850484 -0.1853004199 4.631336622e-22)
(-0.1186975917 -0.2851065973 -6.470115386e-22)
(-0.1335313018 -0.3835770692 9.039541199e-23)
(-0.1266882559 -0.4501596929 3.084373477e-23)
(-0.08904437486 -0.4195815887 5.666685325e-22)
(-0.01527216905 -0.211021152 6.041672274e-22)
(-0.00518764876 0.08593451972 0)
(-0.025336325 0.1764564699 1.467500501e-22)
(-0.0350207133 0.2203130145 -4.907006887e-23)
(-0.03669941511 0.2351407888 7.625030219e-22)
(-0.03058837044 0.2339912923 -6.987682668e-22)
(-0.01965727119 0.2238571545 4.733929817e-23)
(-0.006160774247 0.208131412 -1.017861007e-22)
(0.007985808393 0.1880050433 -3.379493619e-22)
(0.02119179385 0.1633762038 2.057562479e-22)
(0.03202878304 0.133403444 0)
(0.03900828772 0.09679324973 0)
(0.04062931751 0.05193884362 -2.896519846e-22)
(0.03528263787 -0.003040864914 0)
(0.02152471038 -0.0703724343 -5.506702888e-22)
(-0.001668395477 -0.1523822327 -1.459500686e-23)
(-0.03344422813 -0.2504249894 2.556291269e-23)
(-0.06936381457 -0.3597701358 2.194704818e-22)
(-0.09245599615 -0.4573831253 4.815841265e-24)
(-0.08725302759 -0.4696342652 -5.796314366e-22)
(-0.02103883078 -0.2697806419 0)
(-0.01111989378 0.1085932908 0)
(-0.04255512873 0.1946336225 -8.832373192e-22)
(-0.04811886831 0.2256506272 -5.404579833e-22)
(-0.03946806522 0.2279850027 4.538370497e-22)
(-0.0191555886 0.2179881121 -1.717398002e-24)
(0.007198206747 0.202601138 -4.553065066e-23)
(0.03615308526 0.1845979367 5.683216256e-22)
(0.06526685408 0.1646140675 -2.760251726e-23)
(0.0926956336 0.1422950426 -2.064414326e-22)
(0.1168277521 0.1166828731 3.135517352e-23)
(0.1360164005 0.08652515607 -3.419631523e-23)
(0.1484803304 0.05032823571 -3.685490531e-23)
(0.1520942665 0.006325930541 3.202046767e-22)
(0.1445599943 -0.04780080063 6.113738752e-22)
(0.1231908178 -0.1151678179 -5.097546148e-22)
(0.08606745969 -0.2003115323 -1.616946725e-22)
(0.03175603043 -0.3066971877 1.528705991e-22)
(-0.02378921092 -0.423899746 7.293309756e-23)
(-0.06499201825 -0.4870659122 1.912917978e-21)
(-0.02510908254 -0.3290799063 2.954569885e-21)
(-0.0200443871 0.1460948646 -4.386219321e-23)
(-0.06419451235 0.2112816376 4.413367327e-23)
(-0.0507999647 0.217656067 9.992774729e-22)
(-0.01952371446 0.2013436922 -8.060771685e-24)
(0.02387110535 0.1807596678 0)
(0.07118378238 0.1605501814 4.35663412e-23)
(0.118649755 0.1415357024 -2.269390956e-22)
(0.1640162255 0.1232461261 -9.008954208e-23)
(0.2057491025 0.1047905679 3.672582182e-23)
(0.2424982202 0.08509918614 -1.698010222e-23)
(0.2727849936 0.06302977177 3.423677404e-23)
(0.2948649866 0.03735839829 -6.583292217e-23)
(0.3063586522 0.006642389583 -9.291109332e-23)
(0.3046884486 -0.03077438691 1.516224927e-22)
(0.2861614207 -0.07777716184 0)
(0.2468718824 -0.1398708002 1.506794809e-22)
(0.1809424145 -0.2266033096 2.559110956e-22)
(0.0959325416 -0.3443562177 0)
(-0.00675475851 -0.455185731 -3.674905879e-21)
(-0.01923344556 -0.3777211214 -2.89220618e-21)
(-0.02591266898 0.2277061547 -9.511966275e-22)
(-0.03997239639 0.2238376926 -1.388241871e-22)
(0.03654921232 0.1810443546 -2.333385607e-22)
(0.1089891113 0.1450616008 -1.192283829e-22)
(0.1815933427 0.1171805973 -4.29365783e-23)
(0.2488145872 0.0962113208 9.771338506e-23)
(0.3097794993 0.0799674218 -1.406196214e-22)
(0.3643236823 0.06652933359 1.294529885e-22)
(0.4123053367 0.05447743387 -8.601207967e-23)
(0.4533048898 0.04271924164 1.13147026e-25)
(0.4864873499 0.03035403109 1.525268271e-23)
(0.5104795455 0.01657408034 7.985826831e-23)
(0.5234405813 0.0005844224471 -1.809331037e-22)
(0.5230129483 -0.01858708075 -1.616319776e-22)
(0.5051096896 -0.04282708294 -4.262374534e-23)
(0.4657851953 -0.07630861222 0)
(0.3952071035 -0.1286015546 -1.844386418e-22)
(0.2915599623 -0.2208446282 8.146491942e-22)
(0.119716994 -0.3524997276 1.631255721e-21)
(0.02669826039 -0.3775455386 2.172475766e-21)
(0.2142965709 0.134751718 9.862519134e-22)
(0.2776533137 0.09871400979 0)
(0.4316839765 0.05810835446 -2.59315528e-22)
(0.5304851963 0.03846122421 -1.741019632e-22)
(0.601677784 0.0262285197 0)
(0.6570651664 0.018312038 -6.002485832e-23)
(0.7014327407 0.01312988333 6.366801579e-23)
(0.7374902615 0.009538741099 -1.795979367e-23)
(0.7668095352 0.006804906603 2.879362924e-23)
(0.7900836052 0.004468991135 2.309956468e-23)
(0.8073409863 0.00222859336 0)
(0.8181691454 -0.0001409248015 -2.868659099e-23)
(0.8215837454 -0.002714155024 0)
(0.8162010086 -0.005705381867 2.736155146e-23)
(0.799116943 -0.009607091712 1.423134593e-23)
(0.7679969591 -0.01500138296 -5.796764386e-23)
(0.710659555 -0.02502708541 -2.534399652e-22)
(0.6235209395 -0.04204505949 -6.916322989e-22)
(0.4230088196 -0.09183198099 0)
(0.2705667792 -0.1524032262 -2.11930798e-21)
)


// ************************************************************************* //
