/*--------------------------------*- C++ -*----------------------------------*\
  =========                 |
  \\      /  F ield         | OpenFOAM: The Open Source CFD Toolbox
   \\    /   O peration     | Website:  https://openfoam.org
    \\  /    A nd           | Version:  13
     \\/     M anipulation  |
\*---------------------------------------------------------------------------*/
FoamFile
{
    format      ascii;
    class       scalarField;
    location    "22.88";
    object      p_all;
}
// * * * * * * * * * * * * * * * * * * * * * * * * * * * * * * * * * * * * * //


400
(
1.532794038e-06
-0.0005456480276
-0.0008876233686
-0.001015025439
-0.0009360886036
-0.0006831815997
-0.0002938739031
0.0001958632936
0.0007495266803
0.001326637508
0.001881543876
0.002361376589
0.002710740862
0.002876554995
0.002817302216
0.002514994343
0.001990088751
0.001299708154
0.000640878368
4.50415262e-05
0.0005898093388
8.620517665e-06
-0.0003550476561
-0.0004973114062
-0.0004665783084
-0.0002894220254
4.753822666e-06
0.0003866454333
0.0008248508299
0.001282127074
0.001718646136
0.002083256228
0.002325578196
0.002398239149
0.002267366971
0.001924190716
0.001395455642
0.0007462067123
0.000148650986
-0.0005139813289
0.0009539664502
0.0003096908138
-9.147012885e-05
-0.000237740437
-0.0002315587796
-0.0001029787909
0.0001239589662
0.0004279468132
0.0007852353775
0.001163827296
0.001531898436
0.001835371188
0.002024314684
0.002050005679
0.001877302375
0.001496380373
0.0009312121011
0.0002383485507
-0.0004600357954
-0.001296928907
0.0009776213093
0.0002595841739
-0.000190547072
-0.0003427530939
-0.000351934847
-0.0002548704279
-7.218465505e-05
0.0001835294191
0.0004987159642
0.0008531151329
0.001205562804
0.001513118081
0.001715002305
0.001750695149
0.001571330924
0.001153518201
0.0005090695635
-0.0003152869145
-0.001230513396
-0.002381184014
0.0004819983094
-0.0002833781293
-0.0007621705221
-0.0009137633913
-0.0009346683112
-0.0008661179092
-0.0007230850069
-0.0005060216712
-0.0002146465662
0.0001417827189
0.0005328297192
0.0009102189356
0.001202735338
0.001329505193
0.001214124457
0.000803400275
8.328046748e-05
-0.0009141805056
-0.002124033486
-0.003652373755
-0.0006846964208
-0.001465378379
-0.001954331498
-0.002105277726
-0.002147908767
-0.00212438292
-0.002039816745
-0.001877016652
-0.001614741178
-0.001242570666
-0.0007760457777
-0.0002597059797
0.000223833378
0.0005647544691
0.0006411606366
0.0003449319863
-0.0003895212662
-0.001560424361
-0.003131055349
-0.005138097749
-0.002659907643
-0.003421517661
-0.003913286226
-0.00407854805
-0.004175741732
-0.004244570688
-0.004275339315
-0.00422603846
-0.004044218219
-0.003686094343
-0.003137124079
-0.002423061648
-0.001629799939
-0.0008997420202
-0.0004211483943
-0.0003950068274
-0.000984502461
-0.002256734947
-0.004228732877
-0.006824090037
-0.005552733069
-0.00626757896
-0.006765757608
-0.006979556275
-0.007192724639
-0.00744033742
-0.007693720774
-0.007878462458
-0.007898140572
-0.007656360731
-0.007082960435
-0.006155051838
-0.004939337757
-0.003600555783
-0.002409749043
-0.001710438883
-0.001839172583
-0.003010942553
-0.005364233159
-0.008657795512
-0.0094324642
-0.01007876665
-0.01059552576
-0.01090757849
-0.01132269602
-0.01187221537
-0.01250718148
-0.01311514237
-0.01354293066
-0.01361821439
-0.01317716071
-0.01211576917
-0.01042276158
-0.008251486683
-0.005951515841
-0.004057352468
-0.003185810925
-0.003838780774
-0.006422089646
-0.01048706123
-0.01431366302
-0.01487267178
-0.01541956104
-0.01587858522
-0.0165860736
-0.01757575516
-0.01878211086
-0.02005373606
-0.02117176887
-0.02186747165
-0.02185104275
-0.02086588638
-0.01876567485
-0.01561412797
-0.01178948604
-0.008032169701
-0.005355096731
-0.004755581027
-0.007176619468
-0.01197453809
-0.02015058907
-0.02060088067
-0.02117098623
-0.02179275252
-0.02284771154
-0.02438544809
-0.02633373099
-0.02850753424
-0.03062095902
-0.03229649903
-0.03308802797
-0.03253344644
-0.03027539126
-0.02617193424
-0.02051860773
-0.01419818506
-0.008686320937
-0.005721784636
-0.007214591543
-0.01246167638
-0.02685208756
-0.02715795549
-0.02769833201
-0.02841851304
-0.02978430146
-0.0318836856
-0.0346528395
-0.03788297911
-0.04122672758
-0.04419746566
-0.04618034435
-0.0464710304
-0.04445552223
-0.03965285189
-0.03211435274
-0.02269267111
-0.01326108438
-0.006480957657
-0.005803955639
-0.0107606307
-0.03433002709
-0.03441359509
-0.03478491734
-0.0353997988
-0.03688672185
-0.03940433348
-0.04291374907
-0.0471907681
-0.05183265097
-0.05625063912
-0.05967188791
-0.06118314362
-0.0597720904
-0.05464877524
-0.04543457169
-0.03269377098
-0.01844772029
-0.006241046935
-0.001669485668
-0.004869351059
-0.04260490369
-0.04227468396
-0.04219095962
-0.04229115229
-0.04350857048
-0.04611077413
-0.05009340516
-0.05521361298
-0.06100784651
-0.06678872628
-0.0716326951
-0.0744058547
-0.07382585722
-0.06866870698
-0.05806630953
-0.04205667159
-0.02243532718
-0.003252892686
0.007351026473
0.00834509268
-0.05200534114
-0.05075624466
-0.04967322161
-0.04857431237
-0.04892194272
-0.05111493752
-0.05516708249
-0.06078993286
-0.06742884932
-0.07428307958
-0.08027610633
-0.08406997155
-0.08412501318
-0.07883256535
-0.06683844695
-0.04751951634
-0.02212387853
0.005505146388
0.02471851582
0.03353023432
-0.06365110529
-0.06018467986
-0.05709308083
-0.05376026691
-0.05246128961
-0.05367557178
-0.05735980885
-0.0631326494
-0.07025668456
-0.07779506101
-0.08448698753
-0.0887807371
-0.08889386847
-0.08283589475
-0.06884771149
-0.04561823079
-0.01374926121
0.02441911501
0.05554178218
0.07735783873
-0.08018208197
-0.07107094509
-0.06411754831
-0.05716210474
-0.05342823376
-0.05321195787
-0.05625514778
-0.06190961364
-0.06925434734
-0.07711224063
-0.08400775663
-0.08814778399
-0.0874769588
-0.07965369495
-0.06247740569
-0.03404896988
0.00556570891
0.05859570969
0.1058243753
0.148069013
-0.1105040848
-0.08585174092
-0.07160414593
-0.05896946573
-0.05191186198
-0.04988119589
-0.05210038968
-0.05750591596
-0.06485627949
-0.07270501494
-0.07933665882
-0.08271053845
-0.08051720056
-0.06988494142
-0.04823088707
-0.01272161347
0.03823672937
0.1071327565
0.1779793108
0.2564771043
-0.1684348218
-0.09990643064
-0.0750070848
-0.05479702005
-0.04461809575
-0.04158418183
-0.0437161553
-0.04937941584
-0.05701456429
-0.06496792317
-0.07135893281
-0.07397767392
-0.07012717303
-0.05701164791
-0.03102712449
0.01193021744
0.07559995591
0.1664045957
0.2761623455
0.4377046865
-0.3984261153
-0.138097666
-0.0749693851
-0.04708779624
-0.03354884568
-0.03002923381
-0.03280079445
-0.0392629335
-0.04755619099
-0.05593648279
-0.06249757057
-0.06502703879
-0.06099292917
-0.04696756296
-0.01875516648
0.02993653815
0.1069563296
0.2334277251
0.419880632
0.7800238594
)


// ************************************************************************* //
