/*--------------------------------*- C++ -*----------------------------------*\
  =========                 |
  \\      /  F ield         | OpenFOAM: The Open Source CFD Toolbox
   \\    /   O peration     | Website:  https://openfoam.org
    \\  /    A nd           | Version:  13
     \\/     M anipulation  |
\*---------------------------------------------------------------------------*/
FoamFile
{
    format      ascii;
    class       volScalarField;
    location    "28";
    object      p;
}
// * * * * * * * * * * * * * * * * * * * * * * * * * * * * * * * * * * * * * //

dimensions      [0 2 -2 0 0 0 0];

internalField   nonuniform List<scalar> 
400
(
-3.257804568e-09
-0.0005147647263
-0.001138507209
-0.001615368898
-0.001827567234
-0.001727266321
-0.001291856472
-0.0005124437209
0.0006002667997
0.002001693276
0.003599121273
0.005245630259
0.006750471755
0.007909317949
0.008552617321
0.008600307236
0.008104434686
0.0072637974
0.006399969601
0.005856142651
0.0005211212808
-1.137023046e-05
-0.0005596215754
-0.0009388788429
-0.001094346729
-0.001000068189
-0.0006368355753
8.217272956e-06
0.0009334045423
0.00210855979
0.003460951075
0.004868522598
0.006166872579
0.007176235296
0.007745247309
0.007801189731
0.007387324108
0.006668602797
0.005898603861
0.005344710887
0.001169204263
0.0005003781948
-7.899392411e-05
-0.000425833499
-0.0005667398444
-0.0005091338338
-0.0002398645713
0.000261075147
0.001007356306
0.001989526132
0.003157625203
0.00441007832
0.005596667517
0.006541966597
0.007088749048
0.007150471847
0.006750658804
0.006023335477
0.005169346597
0.00444684266
0.001630745974
0.000767454922
7.546001747e-05
-0.0003132072656
-0.0004983990316
-0.0005197512101
-0.0003682573197
-1.249949998e-05
0.0005823701702
0.001432751223
0.002512981856
0.003737132325
0.004955342514
0.005973864051
0.006600613983
0.006706710117
0.006278205459
0.005422377065
0.004323063937
0.003303655587
0.001659382123
0.0005984834401
-0.0002321395222
-0.0007048668854
-0.0009819418894
-0.001128036215
-0.001132596102
-0.0009469667702
-0.0005086085859
0.0002316904331
0.001278802876
0.002566005479
0.003940509846
0.005177307479
0.006025103708
0.006280534958
0.005862620114
0.004840024133
0.003399887049
0.001988912215
0.001051802523
-0.0001864871955
-0.00115809618
-0.00174293163
-0.002156525012
-0.002481025591
-0.002698292274
-0.002736354922
-0.002497401569
-0.001889171063
-0.0008635266593
0.000546335856
0.002192684701
0.003816251398
0.005084720915
0.005679679384
0.005404327737
0.004251845524
0.002411019598
0.0005108199144
-0.0003638780351
-0.001749017956
-0.002856048354
-0.003578429963
-0.004177393952
-0.004746871508
-0.005257032814
-0.005607841383
-0.005658295199
-0.005259395014
-0.00429842229
-0.002753747629
-0.0007394954176
0.001461386362
0.003420573139
0.004655914238
0.004779716573
0.003633559096
0.001370676965
-0.001130132862
-0.002722219781
-0.004217479761
-0.005450791141
-0.00633604175
-0.007174191573
-0.008068361323
-0.008976428514
-0.009768551297
-0.01025420717
-0.01021309352
-0.009442590595
-0.007823803912
-0.00539765827
-0.002434283102
0.0005471699077
0.002854086052
0.00380499855
0.002956588376
0.0003265381474
-0.002888729052
-0.006109442421
-0.007673394378
-0.009018825983
-0.01008682488
-0.01121480599
-0.01251685925
-0.01394270628
-0.01533555732
-0.0164530226
-0.01699109579
-0.01662934526
-0.01510613553
-0.01232478888
-0.00847511101
-0.004123745914
-0.0001947798617
0.002220041878
0.00219020253
-0.0006042441471
-0.004614654583
-0.0105539387
-0.01214083234
-0.01357229519
-0.01482261159
-0.01626783037
-0.01804089651
-0.02009297462
-0.02224854733
-0.02421700981
-0.02560505816
-0.02595293923
-0.02481128902
-0.02187284892
-0.01714752852
-0.01115175405
-0.005000298169
-0.0002845479537
0.001319614424
-0.001186051125
-0.005966527567
-0.0160256106
-0.0175841687
-0.0190499025
-0.02043556724
-0.02216912398
-0.02441892346
-0.02715240213
-0.03018771748
-0.03319535636
-0.03569622316
-0.03708304751
-0.03668840609
-0.03393155384
-0.02852868464
-0.02079655883
-0.01190586281
-0.003943651874
0.0004143917656
-0.0009877843197
-0.006281060726
-0.02245324015
-0.02392125662
-0.02532065161
-0.02671004447
-0.02860394055
-0.0312347357
-0.03460440179
-0.03853730792
-0.04267570016
-0.04646467628
-0.04915689302
-0.04986478257
-0.04768683049
-0.04196710396
-0.03265127279
-0.02073769201
-0.008648181377
-0.0001991021272
0.0007520699273
-0.004375801766
-0.02977198448
-0.03105855701
-0.03220313074
-0.03333038514
-0.0351135422
-0.03789242899
-0.04172039751
-0.04643326276
-0.05164867649
-0.05674370686
-0.06084428943
-0.06285662768
-0.06157606831
-0.05592570476
-0.04535320721
-0.03042245106
-0.01356211908
0.0003683975275
0.005364100911
0.001735445732
-0.0380236548
-0.03895443922
-0.039496274
-0.03990054459
-0.0411274184
-0.04367729875
-0.04765894152
-0.05290672108
-0.05899983812
-0.0652411495
-0.0706368446
-0.07390957267
-0.07358267413
-0.06818313558
-0.05661954313
-0.03882244601
-0.01681155198
0.003921446896
0.01509320161
0.01520377849
-0.0475588335
-0.04772149508
-0.04701318713
-0.04596704675
-0.0460170483
-0.04785705149
-0.05161883575
-0.05709130616
-0.06377518176
-0.07087036855
-0.07725023955
-0.08146068427
-0.08178215341
-0.07639804037
-0.06372577212
-0.04300828134
-0.01550435984
0.01334083796
0.03334899968
0.04056711496
-0.05938368709
-0.05779581267
-0.05462709729
-0.05105702366
-0.04918212916
-0.04981894058
-0.05301582344
-0.05843087356
-0.06541831727
-0.0730248799
-0.07995573709
-0.0845612294
-0.08487998249
-0.07878068578
-0.06425762305
-0.03993752011
-0.006165459911
0.03239830269
0.06454621308
0.08329381202
-0.0757477822
-0.0702527464
-0.06231041786
-0.05471711209
-0.05014590098
-0.04919206284
-0.05160535445
-0.05678517057
-0.06385716719
-0.07165493417
-0.07867387251
-0.08303737949
-0.08251639614
-0.07463688642
-0.05695191003
-0.0274920048
0.01434081764
0.06530452851
0.1142250842
0.150001837
-0.1037838332
-0.08761376697
-0.06978968297
-0.05617601511
-0.04828988735
-0.04560464222
-0.04724826549
-0.05220774173
-0.05928955481
-0.067077909
-0.07384884274
-0.07749407631
-0.07550872965
-0.06502013214
-0.04298760439
-0.006538240679
0.04632679104
0.1149506264
0.1911768164
0.2579735741
-0.1756693785
-0.1146363499
-0.07352510019
-0.05190104823
-0.0412039154
-0.03750674975
-0.03905275567
-0.04432200119
-0.05174986994
-0.05971030713
-0.06635003547
-0.06940882427
-0.06618972762
-0.05347985698
-0.02752694935
0.01603604433
0.08223112245
0.1768573727
0.3048875134
0.4523118135
-0.3555427586
-0.1550076462
-0.07031716712
-0.04277599041
-0.0313636863
-0.02753882237
-0.02957726367
-0.03560056057
-0.04370715809
-0.05213218656
-0.05898854621
-0.06201996164
-0.05848747112
-0.04503951536
-0.01733553124
0.03053833554
0.1080371081
0.2329370836
0.4343927959
0.735494802
)
;

boundaryField
{
    movingWall
    {
        type            zeroGradient;
    }
    fixedWalls
    {
        type            zeroGradient;
    }
    frontAndBack
    {
        type            empty;
    }
}


// ************************************************************************* //
