/*--------------------------------*- C++ -*----------------------------------*\
  =========                 |
  \\      /  F ield         | OpenFOAM: The Open Source CFD Toolbox
   \\    /   O peration     | Website:  https://openfoam.org
    \\  /    A nd           | Version:  13
     \\/     M anipulation  |
\*---------------------------------------------------------------------------*/
FoamFile
{
    format      ascii;
    class       surfaceScalarField;
    location    "28";
    object      phi;
}
// * * * * * * * * * * * * * * * * * * * * * * * * * * * * * * * * * * * * * //

dimensions      [0 3 -1 0 0 0 0];

internalField   nonuniform List<scalar> 
760
(
-1.322256514e-05
1.3214759e-05
-7.201904487e-05
5.879648469e-05
-0.0001620719087
9.005286571e-05
-0.0002652201789
0.0001031482642
-0.0003682382114
0.0001030180428
-0.0004614987099
9.32605331e-05
-0.0005377434058
7.624473158e-05
-0.0005912350366
5.349163557e-05
-0.0006175022768
2.626720702e-05
-0.0006135828159
-3.919505007e-06
-0.0005784544365
-3.512839854e-05
-0.0005138385129
-6.461590641e-05
-0.000424656716
-8.918175628e-05
-0.0003192804894
-0.0001053761887
-0.0002092254209
-0.0001100550529
-0.0001081395101
-0.000101085916
-2.992628917e-05
-7.82132309e-05
1.414820671e-05
-4.407449478e-05
2.190893402e-05
-7.76071441e-06
2.190895212e-05
-6.870419947e-05
8.191896237e-05
-0.000245773809
0.0002358661181
-0.0004934673415
0.000337746435
-0.0007722674919
0.0003819484238
-0.001050394786
0.0003811453034
-0.00130298797
0.0003458536748
-0.00151058346
0.0002838402224
-0.001657850073
0.0002007583148
-0.001733177521
0.000101594756
-0.001729284518
-7.812426179e-06
-0.001643812658
-0.000120600227
-0.001481398681
-0.0002270298991
-0.001254370468
-0.0003162100017
-0.0009832875431
-0.0003764591311
-0.0006961379243
-0.0003972046645
-0.000425730557
-0.0003714932606
-0.000204994001
-0.0002989497613
-5.981345666e-05
-0.0001892550165
-4.927959596e-07
-6.708135208e-05
2.141615944e-05
-0.0001229331026
0.0002048520686
-0.0004149669142
0.0005278999266
-0.0008086564763
0.0007314360256
-0.001247146455
0.000820438452
-0.001684636177
0.0008186350606
-0.002084399296
0.0007456167876
-0.00241693063
0.0006163715166
-0.002658539002
0.0004423666494
-0.002790954077
0.0002340098299
-0.002802377549
3.611085594e-06
-0.002687869561
-0.000235108167
-0.002452933903
-0.0004619655205
-0.002114149831
-0.0006549940615
-0.00170035847
-0.0007902504955
-0.001251812336
-0.0008457507955
-0.0008167394614
-0.0008065661097
-0.0004446214343
-0.0006710677431
-0.0001762319515
-0.0004576444509
-3.22124339e-05
-0.000211100852
-1.079627404e-05
-0.0001720758859
0.0003769279729
-0.0005725519178
0.000928375946
-0.001105950413
0.001264834507
-0.001698009798
0.00141249785
-0.002290561549
0.001411186854
-0.002837211338
0.001292266627
-0.003300168579
0.00107932879
-0.003648240049
0.000790438125
-0.003856286131
0.0004420559074
-0.00390576515
5.309009853e-05
-0.003787700658
-0.0003531726439
-0.00350398367
-0.0007456824836
-0.003071238526
-0.001087739183
-0.002522604828
-0.00133888418
-0.001907978019
-0.00146037759
-0.001290894423
-0.001423649681
-0.0007407486001
-0.001221213526
-0.0003202688815
-0.0008781241291
-7.11019476e-05
-0.0004602677723
-8.189821898e-05
-0.0002170186578
0.000593946657
-0.0007188217725
0.001430179092
-0.001385633846
0.001931646576
-0.002127090437
0.002153954424
-0.002874330381
0.002158426793
-0.003573142411
0.001991078677
-0.004178919401
0.001685105817
-0.004653520059
0.001265038819
-0.004964132764
0.0007526686348
-0.005083952801
0.0001729101489
-0.004994962657
-0.0004421627796
-0.004691134651
-0.001049510482
-0.004183471943
-0.001595401881
-0.003504352949
-0.002018003162
-0.00271042302
-0.002254307504
-0.001881560073
-0.002252512608
-0.001113223185
-0.001989550388
-0.0005008168249
-0.001490530462
-0.000119141194
-0.0008419433931
-0.0002010394034
-0.0002573627831
0.0008513094415
-0.0008513268429
0.002024143203
-0.001642272104
0.002722591871
-0.002526520268
0.0030382026
-0.003426852247
0.003058758768
-0.004283329507
0.002847555935
-0.005046147415
0.00244792374
-0.005670945355
0.001889836789
-0.006116676183
0.001198399499
-0.006345907128
0.0004021411273
-0.006327771926
-0.0004602979604
-0.006042410835
-0.001334871563
-0.005488266644
-0.002149546068
-0.004689934998
-0.002816334805
-0.003705691709
-0.003238550786
-0.002631158673
-0.003327045632
-0.001594212378
-0.003026496666
-0.0007363806295
-0.002348362194
-0.0001821190285
-0.001396204982
-0.0003831584184
-0.0002911801025
0.001142489533
-0.0009641120497
0.002697075169
-0.001864138647
0.003622618501
-0.002878107751
0.004052171734
-0.003923414426
0.004104065461
-0.004936940634
0.003861082151
-0.005865819215
0.003376802327
-0.006660926336
0.002684943928
-0.007273360707
0.001810833899
-0.00765389389
0.0007826743463
-0.007755728712
-0.0003584631049
-0.007539716613
-0.00155088364
-0.006983963319
-0.002705299353
-0.006095759988
-0.003704538133
-0.004925661315
-0.004408649456
-0.003579449275
-0.004673257664
-0.002220369448
-0.00438557648
-0.001050836793
-0.003517894833
-0.0002684654702
-0.002178576286
-0.0006516238748
-0.0003159619568
0.001458451501
-0.001048725583
0.003429838794
-0.002034508694
0.004608401623
-0.003154868781
0.005172531842
-0.004325086498
0.005274283203
-0.005481792339
0.005017788013
-0.006571866795
0.004466876801
-0.007544049433
0.003657126584
-0.008343735959
0.00261052045
-0.008911053911
0.001349992332
-0.009182731059
-8.678592006e-05
-0.009096941327
-0.001636673338
-0.008604518933
-0.003197721722
-0.00768414213
-0.00462491492
-0.006364021997
-0.005728769578
-0.004746008968
-0.006291270682
-0.003022860236
-0.006108725196
-0.001469570453
-0.005071184597
-0.0003882415683
-0.003259905149
-0.001039865431
-0.0003291928664
0.001787644392
-0.001096433659
0.004197079598
-0.002135061289
0.005647029258
-0.003325340031
0.006362810594
-0.004583613464
0.006532556652
-0.005849326483
0.006283501054
-0.007072520994
0.005690071334
-0.008203765583
0.004788371196
-0.009187195878
0.003593950772
-0.009956829802
0.00211962629
-0.01043600592
0.0003923902426
-0.01054218828
-0.001530490938
-0.0101949773
-0.003544932661
-0.009334037122
-0.005485855065
-0.007946584655
-0.007116222018
-0.006105892167
-0.008131963147
-0.004012906891
-0.008201710449
-0.002014580818
-0.007069510647
-0.0005527986882
-0.004721687253
-0.001592664109
-0.0003297914553
0.002117435863
-0.001101696441
0.004968984611
-0.002151412078
0.006696744911
-0.003361059833
0.007572458361
-0.004650820813
0.007822317645
-0.005965926133
0.007598606391
-0.007263343955
0.006987489176
-0.008500527238
0.006025554504
-0.009626971168
0.004720394732
-0.0105785613
0.003071216458
-0.01127455383
0.001088382814
-0.01161810786
-0.001186936863
-0.01150158919
-0.003661451274
-0.01082048812
-0.006166956088
-0.009502966622
-0.008433743481
-0.007560579477
-0.01007435026
-0.005160851747
-0.01060143815
-0.002696103377
-0.009534258991
-0.0007741464958
-0.006643644111
-0.002366810595
-0.0003199351371
0.002437371005
-0.001066686237
0.00571573574
-0.002080421557
0.007710480257
-0.003246809574
0.008738846399
-0.004492300141
0.009067808231
-0.005770863205
0.008877169473
-0.007050304563
0.008266930554
-0.008300530072
0.007275780037
-0.009484290203
0.005904154892
-0.01054995119
0.004136877481
-0.01142560951
0.001964041176
-0.0120141605
-0.0005983858258
-0.01219378142
-0.003481830301
-0.0118209535
-0.006539783959
-0.0107553613
-0.009499335638
-0.008913732756
-0.01191597877
-0.006370842182
-0.01314432869
-0.003498954863
-0.01240614628
-0.001063147668
-0.009079451282
-0.003429958253
-0.0003074113409
0.002744782351
-0.001006592336
0.006414916757
-0.00193836226
0.00864225021
-0.002991908371
0.009792392538
-0.004102824462
0.01017872435
-0.00523746167
0.01001180671
-0.006378642736
0.009408111643
-0.007514100909
0.008411238236
-0.008627351289
0.007017405299
-0.009689865609
0.005199391833
-0.01065316449
0.002927340095
-0.01143758914
0.0001860388588
-0.01192947417
-0.002989945224
-0.01196500302
-0.006504255069
-0.0113437447
-0.01012059391
-0.009868966826
-0.01339075661
-0.007460108769
-0.01555318672
-0.00436382849
-0.01550242653
-0.001425532696
-0.01201774705
-0.004855490937
-0.0003089318017
0.003053714168
-0.0009555775045
0.007061562481
-0.001768507216
0.009455179949
-0.002639414383
0.01066329974
-0.003518291871
0.01105760187
-0.004389757927
0.01088327279
-0.005256759589
0.01027511334
-0.006129559559
0.009284038234
-0.007017756057
0.007905601824
-0.007923378349
0.006105014151
-0.008832265956
0.003836227731
-0.00970426564
0.001058038572
-0.01045077326
-0.002243437573
-0.01092415965
-0.006030868641
-0.01089505809
-0.01014969545
-0.0100649063
-0.01422090837
-0.008157313048
-0.01746077994
-0.005167632003
-0.01849210756
-0.001854347611
-0.01533103142
-0.006709838536
-0.0003552749588
0.003408989146
-0.0009733477478
0.007679635296
-0.001646083174
0.0101279154
-0.00226874703
0.01128596362
-0.002816886519
0.01160574139
-0.003303748639
0.01137013495
-0.003759472091
0.01073083682
-0.00422099244
0.009745558614
-0.004726218601
0.008410828013
-0.005309836552
0.006688632126
-0.005996730621
0.004523121822
-0.006791870008
0.001853177982
-0.007660652449
-0.001374655108
-0.008503088359
-0.005188432706
-0.009113226221
-0.00953955756
-0.009142542675
-0.01419159189
-0.008128420961
-0.01847490163
-0.005711164345
-0.02090936415
-0.002318285594
-0.01872391015
-0.009028124122
-0.0005003828199
0.003909371983
-0.001151314215
0.008330566721
-0.001674853032
0.01065145425
-0.001981686563
0.01159279718
-0.00209573148
0.01171978634
-0.002075805234
0.01135020874
-0.001988554531
0.01064358615
-0.001901234113
0.00965823823
-0.001879012593
0.008388606523
-0.001986056831
0.006795676391
-0.002282550765
0.00481961578
-0.002818835681
0.002389462921
-0.003622226509
-0.0005712642582
-0.004668909406
-0.004141749788
-0.005834691338
-0.008373775607
-0.006807707424
-0.01321857579
-0.007016697918
-0.01826591112
-0.00571641517
-0.02220964688
-0.002739570372
-0.02170075494
-0.01176769449
-0.0008308912887
0.004740263285
-0.001604851524
0.009104526984
-0.001951013867
0.01099761661
-0.001839433438
0.01148121677
-0.001385500025
0.01126585295
-0.00071820856
0.0106829173
4.812783973e-05
0.009877249788
0.0008163155722
0.008890050533
0.001495270791
0.007709651339
0.001998336484
0.00629261073
0.002238434294
0.004579517999
0.002128277756
0.002499619484
0.001583089271
-2.60757504e-05
0.0005449686403
-0.003103629137
-0.0009843685769
-0.006844438373
-0.002828445427
-0.01137449892
-0.004459157991
-0.01663519855
-0.004810506842
-0.02185829802
-0.002944296091
-0.02356696568
-0.01471199058
-0.001465687276
0.006205950572
-0.002379892654
0.01001873238
-0.002373475845
0.01099119982
-0.001603588756
0.0107113297
-0.0003496878834
0.0100119521
0.001163569368
0.009169660074
0.002771761129
0.008269058056
0.004349449295
0.007312362401
0.005791539017
0.006267561652
0.006997933676
0.005086216105
0.007865417912
0.003712033796
0.008282217141
0.002082820284
0.008123762962
0.0001323784531
0.007264445474
-0.002244311628
0.005585169841
-0.005165162723
0.003073838485
-0.008863167554
7.89492293e-05
-0.01364030928
-0.002445762686
-0.01933358609
-0.002601083477
-0.02341164488
-0.01731307405
-0.002365505903
0.008571456487
-0.002963817489
0.01061704398
-0.001922833909
0.009950216248
8.108224594e-05
0.008707413557
0.002534841113
0.007558193247
0.005140198552
0.006564302658
0.007719688395
0.00568956824
0.01015455198
0.004877498849
0.01234950348
0.004072610182
0.01421193529
0.00322378432
0.01564047904
0.002283490081
0.01651753564
0.001205763708
0.01669705366
-4.713954364e-05
0.01602708866
-0.001574346612
0.01430505991
-0.003443133955
0.01133280697
-0.005890914606
0.007055594805
-0.009363097104
0.002201611919
-0.0144796032
-0.001027325654
-0.02018270729
-0.0183403997
-0.002150341585
0.01072179808
-7.19946605e-05
0.008538697066
0.003741893374
0.006136328229
0.007719759407
0.00472954754
0.0115618476
0.00371610507
0.01514097749
0.002985172794
0.01839881529
0.00243173046
0.02130150962
0.00197480454
0.02381238607
0.001561733755
0.02587968869
0.001156481724
0.02743052704
0.00073265175
0.02836469225
0.0002715985186
0.0285755894
-0.0002580366698
0.02788764408
-0.0008864012821
0.02609932616
-0.001654816016
0.02290825501
-0.002699843445
0.01790695885
-0.004361800928
0.01076690285
-0.007339547197
0.002912178071
-0.01232798251
-0.01542822163
0.01072179809
0.01926049517
0.02539682341
0.03012637096
0.03384247604
0.03682764884
0.03925937931
0.04123418386
0.04279591762
0.04395239935
0.04468505111
0.04495664964
0.04469861298
0.04381221171
0.0421573957
0.03945755226
0.03509575133
0.02775620414
0.01542822163
)
;

boundaryField
{
    movingWall
    {
        type            calculated;
        value           uniform 0;
    }
    fixedWalls
    {
        type            calculated;
        value           uniform 0;
    }
    frontAndBack
    {
        type            empty;
    }
}


// ************************************************************************* //
