/*--------------------------------*- C++ -*----------------------------------*\
  =========                 |
  \\      /  F ield         | OpenFOAM: The Open Source CFD Toolbox
   \\    /   O peration     | Website:  https://openfoam.org
    \\  /    A nd           | Version:  13
     \\/     M anipulation  |
\*---------------------------------------------------------------------------*/
FoamFile
{
    format      ascii;
    class       surfaceScalarField;
    location    "28";
    object      phi_0;
}
// * * * * * * * * * * * * * * * * * * * * * * * * * * * * * * * * * * * * * //

dimensions      [0 3 -1 0 0 0 0];

internalField   nonuniform List<scalar> 
760
(
3.972631504e-06
-3.972075249e-06
-3.888848408e-05
4.2860959e-05
-0.000129690447
9.080177241e-05
-0.0002528854061
0.0001231942044
-0.0003928964683
0.0001400098172
-0.0005366213871
0.0001437242524
-0.0006724807253
0.000135859184
-0.0007890912785
0.0001166107327
-0.0008747041763
8.561499386e-05
-0.0009178492435
4.314729088e-05
-0.0009091445901
-8.703215932e-06
-0.0008439499709
-6.519398089e-05
-0.0007250886897
-0.0001188610099
-0.0005647148051
-0.0001603742226
-0.0003842058656
-0.000180508644
-0.0002112966126
-0.0001729080892
-7.441179772e-05
-0.0001368843162
4.962789694e-06
-7.937528756e-05
2.153312923e-05
-1.65715053e-05
2.153246208e-05
-4.642559712e-05
4.245356922e-05
-0.0002049562872
0.0002013911507
-0.0004627137536
0.0003485584198
-0.0007877859329
0.000448266283
-0.001146693054
0.0004989147395
-0.001508655437
0.0005056844431
-0.001844965507
0.0004721712415
-0.002127582751
0.0003992320553
-0.00232898143
0.0002870191844
-0.002424060648
0.0001382307392
-0.002394000798
-3.876081709e-05
-0.002231234839
-0.0002279615193
-0.001944363962
-0.0004057323484
-0.001561159374
-0.00054357656
-0.00112795369
-0.000613712697
-0.0007038845165
-0.0005969779683
-0.0003496290149
-0.0004911413066
-0.0001119830507
-0.0003170228122
-6.915448108e-06
-0.0001216425364
1.461624235e-05
-0.0001090014289
0.0001514549361
-0.0003952298576
0.0004876194291
-0.0008137346345
0.0007670626641
-0.001316741314
0.0009512690983
-0.001858495409
0.001040668208
-0.002396627232
0.001043816868
-0.002890970805
0.0009665182092
-0.003302380247
0.0008106467842
-0.003593187608
0.0005778310284
-0.003729920987
0.0002749642233
-0.003688029101
-8.065245076e-05
-0.003457770464
-0.0004582198596
-0.003050002951
-0.0008134994476
-0.002500144885
-0.001093434075
-0.00186825251
-0.001245604487
-0.001233029153
-0.001232200064
-0.0006784422778
-0.001045727779
-0.000274036828
-0.0007214312664
-5.363805817e-05
-0.0003420431714
-3.902192073e-05
-0.0001684146277
0.000319869804
-0.0005777463561
0.0008969502925
-0.001148004157
0.001337323135
-0.001813147477
0.001616411651
-0.002516665431
0.001744186607
-0.003208241522
0.001735392704
-0.003840622792
0.001598900926
-0.004367837032
0.00133786429
-0.004745596005
0.0009555917815
-0.004934076981
0.0004634423711
-0.004902746396
-0.0001119856185
-0.00463658556
-0.000724380771
-0.004142918208
-0.001307164774
-0.003457327047
-0.001779023476
-0.002646472158
-0.00205645825
-0.001804501854
-0.002074168982
-0.001039806321
-0.001810423282
-0.0004516722621
-0.001309565101
-0.0001027789281
-0.0006909355004
-0.00014180119
-0.0002213970577
0.000541267896
-0.0007423142316
0.001417869187
-0.001450509874
0.002045519628
-0.002262168347
0.002428068197
-0.003111418647
0.002593435919
-0.003942663818
0.002566638073
-0.004704900999
0.002361138552
-0.005348539659
0.001981502409
-0.005824920056
0.001431969116
-0.006088349933
0.0007268693223
-0.006100410762
-9.992379977e-05
-0.00583611684
-0.0009886720009
-0.005292302459
-0.001850977135
-0.004496641048
-0.00257468351
-0.003515534604
-0.003037561829
-0.002456004854
-0.00313369559
-0.00145526473
-0.002811163978
-0.0006537093651
-0.002111118802
-0.0001563149696
-0.001188330615
-0.0002981173835
-0.0002664290585
0.0008076977256
-0.0008831841788
0.002034625681
-0.00171089371
0.002873228784
-0.002650553564
0.003367726965
-0.003629042833
0.003571923438
-0.004587994895
0.003525588896
-0.005475528201
0.003248669461
-0.006241159072
0.002747131677
-0.006833733197
0.002024540465
-0.007201948826
0.00109508386
-0.00729768414
-4.185826375e-06
-0.00708116855
-0.001205184851
-0.006531566679
-0.002400578519
-0.005659339132
-0.003446911649
-0.004521412918
-0.00417548636
-0.003232232452
-0.004422874352
-0.001960745782
-0.00408265251
-0.000901886018
-0.003169979687
-0.0002217685222
-0.00186845138
-0.0005198872727
-0.0003018853065
0.001109583835
-0.0009948203081
0.002727561041
-0.001918627833
0.003797035047
-0.002962707683
0.004411804689
-0.004049240756
0.004658454937
-0.005119603127
0.00459595143
-0.006123777982
0.004252842297
-0.007013154923
0.0036365081
-0.007736415882
0.002747800799
-0.008238021103
0.001596690358
-0.008459112869
0.0002169075023
-0.008343133593
-0.001321165984
-0.007844683663
-0.002899031286
-0.006947001226
-0.004344595025
-0.005684619151
-0.005437867944
-0.004167472912
-0.005940021767
-0.002592664282
-0.005657462829
-0.001221868625
-0.004540778809
-0.0003085634367
-0.002781757412
-0.0008284505205
-0.0003260283721
0.001435612676
-0.001071570697
0.003473102541
-0.002062537119
0.004787999971
-0.003180498674
0.005529763854
-0.00434547741
0.005823433484
-0.005500981613
0.005751457251
-0.006601566429
0.0053534255
-0.007603588101
0.004638528867
-0.008458860172
0.003603071157
-0.009110676298
0.002248506383
-0.009492403807
0.0005986339981
-0.0095301317
-0.001283443503
-0.009151175872
-0.003277991421
-0.008302306956
-0.005193462705
-0.006979547825
-0.006760624965
-0.005267755704
-0.007651814308
-0.003376449238
-0.007548767064
-0.001638449881
-0.006278779324
-0.0004270847033
-0.003993119389
-0.001255534356
-0.0003376347942
0.001773246907
-0.001109063072
0.004244528561
-0.002132880166
0.005811816088
-0.003286097762
0.006682981388
-0.004488747307
0.007026084941
-0.005688593706
0.006951305881
-0.006847402323
0.006512232322
-0.007929955384
0.005721080379
-0.008895643097
0.004568756102
-0.009692028725
0.00304489004
-0.01025047634
0.001157079134
-0.01048508764
-0.001048835183
-0.01029768998
-0.003465389234
-0.009593548113
-0.005897600673
-0.008314070098
-0.00804009971
-0.006490727239
-0.009475156497
-0.004312888926
-0.009726603042
-0.002170582473
-0.008421085081
-0.000588346155
-0.005575355473
-0.00184388196
-0.0003370700676
0.002110316517
-0.001106801039
0.005014258262
-0.002125349415
0.006830365543
-0.003267377549
0.007825012434
-0.004454636939
0.008213345984
-0.005641060811
0.008137730034
-0.006798167848
0.007669336861
-0.007902796199
0.006825707234
-0.008927125518
0.005593083649
-0.009830190954
0.003947953964
-0.01055052172
0.001877406936
-0.01100049699
-0.0005988595529
-0.01106544389
-0.003400437992
-0.01061183218
-0.00635120906
-0.009516065656
-0.009135865811
-0.007725738903
-0.01126548416
-0.005360585182
-0.01209175898
-0.002823588454
-0.01095808208
-0.0008034415854
-0.00759550736
-0.002647325981
-0.0003277751207
0.00243809144
-0.001071688006
0.005758171094
-0.002046404134
0.007805082738
-0.003125006748
0.008903618199
-0.004232624772
0.009320964085
-0.005331528296
0.009236631782
-0.006405600685
0.008743406704
-0.007447232413
0.007867338574
-0.008446538044
0.00659238896
-0.009381684081
0.004883100304
-0.0102092891
0.002705011077
-0.01085392822
4.578063208e-05
-0.01120072965
-0.003053634586
-0.01109059082
-0.006461350008
-0.01033716028
-0.00988929893
-0.008781822322
-0.01282082159
-0.006416613446
-0.01445696676
-0.00357656838
-0.01379812395
-0.00108187398
-0.01009019984
-0.003729199982
-0.0003182287687
0.002756319909
-0.0010222497
0.006462192506
-0.001919092246
0.008701925166
-0.00287965034
0.009864178098
-0.003835218015
0.01027653146
-0.004759899495
0.01016131247
-0.005653120847
0.009636626565
-0.006525955362
0.008740173221
-0.007390470849
0.007456904235
-0.008250124403
0.005742752252
-0.009089239638
0.003544125958
-0.00986053106
0.00081707449
-0.01046773616
-0.002446428607
-0.01075153774
-0.006177550237
-0.01048271564
-0.01015812119
-0.009394780351
-0.01390875578
-0.007303033379
-0.01654871098
-0.004365264682
-0.01673589385
-0.001427446126
-0.01302801401
-0.005156648929
-0.0003247392816
0.003081059074
-0.0009934913919
0.007130944979
-0.001788210957
0.009496644306
-0.002576802458
0.0106527704
-0.003303012476
0.01100274098
-0.003959340966
0.01081764268
-0.004565314514
0.0102426012
-0.005153435938
0.009328293938
-0.00575976093
0.008063228096
-0.0064158942
0.006398884226
-0.00713972598
0.004267957778
-0.007922353716
0.001599702844
-0.008708009599
-0.001660775152
-0.009367178682
-0.005518381366
-0.009666412285
-0.009858884983
-0.00926035759
-0.01431481229
-0.007770009576
-0.01803906143
-0.005064979624
-0.01944093086
-0.001829943171
-0.01626305261
-0.006986591891
-0.0003759488299
0.003457007933
-0.001042322986
0.007797319889
-0.001722686103
0.01017700812
-0.002284992573
0.01121507761
-0.002699411748
0.01141715873
-0.002988647854
0.01110687988
-0.003199034617
0.01045299011
-0.00338695
0.009516208839
-0.003612170493
0.008288444959
-0.003933109704
0.006719822348
-0.004400873689
0.004735725665
-0.005049181652
0.002248014533
-0.0058760281
-0.0008339293817
-0.00681172598
-0.004582683036
-0.007668818114
-0.009001791973
-0.008084702299
-0.01389892921
-0.007519288275
-0.0186044761
-0.005480627249
-0.02147959035
-0.002250823919
-0.01949285718
-0.009237410695
-0.0005195536047
0.003976560987
-0.001251140398
0.008528906799
-0.001808164057
0.0107340328
-0.002076233327
0.01148314868
-0.002080854867
0.01142177939
-0.001894079712
0.0109201038
-0.001597927557
0.01015683863
-0.001274619621
0.009192901517
-0.001005266172
0.008019092023
-0.0008701680837
0.006584726119
-0.000947804503
0.004813363807
-0.001310328583
0.002610535505
-0.002011765981
-0.0001324961719
-0.00306070898
-0.003533742544
-0.004363441628
-0.007699059734
-0.005624096729
-0.01263826904
-0.006233855964
-0.01799471324
-0.005343571271
-0.02236987719
-0.002600438226
-0.02223599213
-0.01183785073
-0.0008243603898
0.004800920921
-0.001714265172
0.009418810885
-0.002101311194
0.01112107742
-0.001950146151
0.01133198438
-0.001398815631
0.01087044854
-0.0005959152906
0.01011720322
0.0003319962593
0.009228927865
0.001277144858
0.008247754208
0.002142068372
0.007154170651
0.002832307559
0.005894490578
0.003251454183
0.004394219389
0.003299326427
0.002562662771
0.002875068607
0.0002917676909
0.00189236712
-0.002551040835
0.0003246511923
-0.006131351141
-0.001680712278
-0.01063291301
-0.003588656625
-0.01608676871
-0.004304709917
-0.02165382127
-0.002703306228
-0.02383739334
-0.01454115851
-0.00135684372
0.00615776491
-0.002445141671
0.01050710849
-0.00243607761
0.01111200759
-0.001572579225
0.01046848621
-0.0002072781726
0.009505149653
0.00141107646
0.008498851636
0.003114767831
0.007525236394
0.004781118758
0.006581401031
0.006308978721
0.005626309421
0.007602573632
0.004600897124
0.008560724069
0.00343606943
0.009069714924
0.002053669646
0.008998914162
0.0003625718063
0.008203248426
-0.001755375512
0.006542941805
-0.004471039781
0.003969627099
-0.008059596056
0.0007813286172
-0.01289846898
-0.001924106876
-0.01894838265
-0.002270551607
-0.02349094921
-0.01681170726
-0.002136550533
0.008294315305
-0.002932456007
0.01130301404
-0.00171348095
0.009893027806
0.0004885831611
0.008266418461
0.003048293416
0.006945441306
0.005677512392
0.005869635668
0.008225038319
0.004977711565
0.0105955315
0.004210908329
0.01271542181
0.003506422535
0.01451123416
0.002805088138
0.0158967868
0.002050515135
0.01676441006
0.00118604486
0.0169759628
0.000151020476
0.01635800387
-0.001137418836
0.01469338508
-0.002806417075
0.01174624248
-0.005112447301
0.007426142157
-0.008578375497
0.002422232205
-0.013944474
-0.0008953454926
-0.02017337226
-0.01770705364
-0.002483812945
0.01077812676
-9.07882893e-06
0.008828281311
0.004175395134
0.005708554795
0.008314400012
0.004127412558
0.01209443167
0.00316540782
0.01548654036
0.002477526503
0.01849360238
0.001970649377
0.02112305245
0.001581457329
0.02337272861
0.001256747703
0.02522106663
0.000956754202
0.02662142527
0.0006501609652
0.02749544604
0.0003120280661
0.02772807248
-8.161159582e-05
0.02715813433
-0.0005674831243
0.02554616459
-0.001194457098
0.02252989551
-0.002096178716
0.01760633337
-0.003654817982
0.01039231814
-0.006730449415
0.002469448151
-0.01225050976
-0.01523760375
0.01077812509
0.01960640379
0.02531495811
0.02944237123
0.03260778035
0.03508530726
0.03705595543
0.03863741357
0.03989416431
0.04085091704
0.04150107573
0.04181310992
0.04173149668
0.0411640184
0.03996956118
0.03787338284
0.03421856388
0.02748811302
0.0152376038
)
;

boundaryField
{
    movingWall
    {
        type            calculated;
        value           uniform 0;
    }
    fixedWalls
    {
        type            calculated;
        value           uniform 0;
    }
    frontAndBack
    {
        type            empty;
    }
}


// ************************************************************************* //
