/*--------------------------------*- C++ -*----------------------------------*\
  =========                 |
  \\      /  F ield         | OpenFOAM: The Open Source CFD Toolbox
   \\    /   O peration     | Website:  https://openfoam.org
    \\  /    A nd           | Version:  13
     \\/     M anipulation  |
\*---------------------------------------------------------------------------*/
FoamFile
{
    format      ascii;
    class       vectorField;
    location    "28";
    object      U_all;
}
// * * * * * * * * * * * * * * * * * * * * * * * * * * * * * * * * * * * * * //


400
(
(0.0001739724582 -0.000177590136 0)
(-0.0001488647829 3.675464258e-05 0)
(-0.00152251254 0.0002702711602 0)
(-0.003731828213 0.0004188937855 0)
(-0.006437055275 0.0004970608445 0)
(-0.009342398368 0.0005258822447 0)
(-0.01220276697 0.0005151480272 0)
(-0.01479029479 0.0004641711639 0)
(-0.01687142681 0.0003667372184 0)
(-0.01820712117 0.0002179027036 0)
(-0.01857865737 2.099578071e-05 0)
(-0.01783492597 -0.0002070293447 0)
(-0.01594981703 -0.0004332447858 0)
(-0.01307194541 -0.000612471766 0)
(-0.009545257372 -0.0006973358433 0)
(-0.005880634264 -0.0006533823686 0)
(-0.002669538771 -0.0004737041832 0)
(-0.0004443401414 -0.0001873302673 0)
(0.0005079866425 0.0001266555136 0)
(0.0002996311696 0.0002928184194 0)
(-5.251256655e-05 0.0001474648293 0)
(-0.002039811999 0.001902108472 0)
(-0.0063013499 0.00368833369 0)
(-0.01231494674 0.004921879331 0)
(-0.01934260648 0.005569268433 0)
(-0.02672726588 0.005705431468 0)
(-0.03387749757 0.005381316317 0)
(-0.04022628752 0.00460500021 0)
(-0.04520992852 0.003368203452 0)
(-0.0482854583 0.001689797528 0)
(-0.04899148729 -0.0003413705317 0)
(-0.04704217992 -0.002538332706 0)
(-0.04243291913 -0.004614068993 0)
(-0.03552624911 -0.00621604666 0)
(-0.02708153209 -0.006999370452 0)
(-0.01819468974 -0.006728711078 0)
(-0.01012687604 -0.00538261319 0)
(-0.004029360713 -0.003229128884 0)
(-0.0006023052494 -0.0008799791807 0)
(0.0002098181642 0.0005563431835 0)
(-0.0003505397849 0.001694196923 0)
(-0.004378721627 0.006334086042 0)
(-0.01158991547 0.01044583226 0)
(-0.02108885817 0.01322490194 0)
(-0.0318112192 0.01462370469 0)
(-0.04286510551 0.0147675107 0)
(-0.05343185679 0.01374637176 0)
(-0.06271643939 0.01158510462 0)
(-0.06993789359 0.008298015518 0)
(-0.07436281454 0.003975879744 0)
(-0.07538396243 -0.001131542395 0)
(-0.07263240937 -0.006565176302 0)
(-0.06610092036 -0.01166027682 0)
(-0.05624837365 -0.01562130736 0)
(-0.04404739943 -0.01767438941 0)
(-0.03093220364 -0.01728304443 0)
(-0.01860697998 -0.01437939684 0)
(-0.008711537171 -0.009537760973 0)
(-0.002417306181 -0.0040513776 0)
(2.52327176e-05 -2.164694161e-05 0)
(-0.0006201870805 0.004497269291 0)
(-0.006632599086 0.01336385239 0)
(-0.01667213147 0.02044382802 0)
(-0.02940352516 0.02504540963 0)
(-0.04343387479 0.02723063998 0)
(-0.0576949714 0.02721404192 0)
(-0.0712256278 0.02513542784 0)
(-0.08309260986 0.02104336935 0)
(-0.09237949397 0.01498857427 0)
(-0.09822246441 0.007157645217 0)
(-0.09989038847 -0.002004268433 0)
(-0.09689964232 -0.0117195928 0)
(-0.08914907844 -0.02088031866 0)
(-0.07705347885 -0.0281551036 0)
(-0.06164033495 -0.03221647909 0)
(-0.0445556602 -0.032084494 0)
(-0.02790703752 -0.02752598986 0)
(-0.01390612439 -0.01938053161 0)
(-0.004393147794 -0.009675782072 0)
(-0.0001336056394 -0.001558821041 0)
(-0.0008524567937 0.008443927927 0)
(-0.008652587141 0.02277422156 0)
(-0.02126728083 0.03336923948 0)
(-0.03692896893 0.03996801634 0)
(-0.05393559367 0.04290983629 0)
(-0.07108589776 0.04257198136 0)
(-0.08734014194 0.03916955926 0)
(-0.1016967547 0.03277962752 0)
(-0.1131629086 0.02348460541 0)
(-0.1207756663 0.01155529995 0)
(-0.1236681459 -0.002384317894 0)
(-0.1211757497 -0.0172519738 0)
(-0.1129827813 -0.03148519498 0)
(-0.09930102066 -0.04315396312 0)
(-0.08105039232 -0.05023638826 0)
(-0.05997894559 -0.05109169084 0)
(-0.03860593793 -0.04507915982 0)
(-0.01988184762 -0.03313697901 0)
(-0.00660103377 -0.01802804925 0)
(-0.0002788015477 -0.004109390982 0)
(-0.001044794164 0.01338247288 0)
(-0.01036802174 0.03428092805 0)
(-0.02520435015 0.0488916757 0)
(-0.04341180891 0.05765123698 0)
(-0.06302772741 0.06134449564 0)
(-0.08276391239 0.0606004048 0)
(-0.101558018 0.05574479739 0)
(-0.1183997672 0.0468844283 0)
(-0.1322699405 0.03410900669 0)
(-0.1421313174 0.01772601947 0)
(-0.1469675154 -0.00152765186 0)
(-0.1458671422 -0.02232782801 0)
(-0.1381780691 -0.04269934714 0)
(-0.1237383073 -0.06007434946 0)
(-0.103162971 -0.07157432866 0)
(-0.07813503041 -0.07459119025 0)
(-0.05153801823 -0.06767862196 0)
(-0.02722580239 -0.05154311821 0)
(-0.00932271449 -0.02963019159 0)
(-0.0004526079294 -0.007821578657 0)
(-0.001190748115 0.01913480007 0)
(-0.0117127218 0.04752696782 0)
(-0.02832181741 0.06659435901 0)
(-0.04858463998 0.07768400699 0)
(-0.07034319012 0.08217720774 0)
(-0.09227148498 0.08104536409 0)
(-0.1133375328 0.07476533561 0)
(-0.1325797515 0.06347242027 0)
(-0.1490064416 0.04722474127 0)
(-0.1615455511 0.02629123024 0)
(-0.1690379987 0.001416020425 0)
(-0.1702976594 -0.02595770125 0)
(-0.1642492935 -0.05353500914 0)
(-0.1501891845 -0.07812590408 0)
(-0.1281907844 -0.09585341734 0)
(-0.09959942009 -0.1027766931 0)
(-0.06746564443 -0.09606910347 0)
(-0.03660624842 -0.0756178828 0)
(-0.01291969358 -0.04533029847 0)
(-0.0007057796491 -0.01302233975 0)
(-0.001282360267 0.0254881799 0)
(-0.01261999858 0.06207433199 0)
(-0.03045691573 0.08595036419 0)
(-0.05215792857 0.09952794368 0)
(-0.07543827933 0.1049111811 0)
(-0.09898109242 0.1035013493 0)
(-0.1218346242 0.09597118573 0)
(-0.143144669 0.0824864808 0)
(-0.1620123822 0.06303129385 0)
(-0.1773970429 0.03774721854 0)
(-0.1880599051 0.007252540378 0)
(-0.1925698185 -0.02705984678 0)
(-0.1894044363 -0.06274042816 0)
(-0.1772069943 -0.09608905171 0)
(-0.1552587917 -0.1221815334 0)
(-0.1241814904 -0.1354007388 0)
(-0.08676956077 -0.1308130508 0)
(-0.04861319601 -0.1065288293 0)
(-0.01778943543 -0.06630202634 0)
(-0.001100717515 -0.02024274953 0)
(-0.001314982212 0.03219699381 0)
(-0.01304372545 0.07740905644 0)
(-0.03148030352 0.1063182506 0)
(-0.05386881538 0.1224883395 0)
(-0.07785858945 0.1288471483 0)
(-0.1021819022 0.1273103294 0)
(-0.1260126827 0.1187994188 0)
(-0.1486641667 0.1035245339 0)
(-0.1694092273 0.08136466064 0)
(-0.187338143 0.05225198217 0)
(-0.2012482093 0.01653971193 0)
(-0.2095818969 -0.0246220703 0)
(-0.2104538971 -0.06887683676 0)
(-0.2018398184 -0.1122581427 0)
(-0.1820346097 -0.1489264408 0)
(-0.1504915133 -0.1714017849 0)
(-0.10908211 -0.1718826768 0)
(-0.0635719717 -0.1453186712 0)
(-0.02433763684 -0.09397085252 0)
(-0.001719774379 -0.03023284258 0)
(-0.001294521212 0.03900268232 0)
(-0.0129961684 0.09297012879 0)
(-0.03136236738 0.1269583095 0)
(-0.05357454757 0.1457053385 0)
(-0.07726238297 0.15304428 0)
(-0.1012411014 0.1514906275 0)
(-0.1248522231 0.1422798119 0)
(-0.1476358746 0.1257004475 0)
(-0.1691230331 0.101522447 0)
(-0.1886582522 0.06941690012 0)
(-0.2052404587 0.02935776728 0)
(-0.2173870399 -0.01794644304 0)
(-0.2230564293 -0.07052851052 0)
(-0.2196966055 -0.1245443482 0)
(-0.2045712964 -0.1736236761 0)
(-0.1755855258 -0.2085612332 0)
(-0.1328673775 -0.2181330885 0)
(-0.0812662106 -0.1924375203 0)
(-0.03292450722 -0.1298305856 0)
(-0.002676397839 -0.04397172768 0)
(-0.001247386434 0.04567925063 0)
(-0.01259968459 0.1082142751 0)
(-0.03026214039 0.1470811733 0)
(-0.05137544948 0.1681765886 0)
(-0.07358155976 0.1763193332 0)
(-0.09581671567 0.1747168831 0)
(-0.1176359978 0.1649961691 0)
(-0.1388644317 0.1475810463 0)
(-0.1593736948 0.1221640833 0)
(-0.1788872214 0.08815188538 0)
(-0.1967898408 0.0450788657 0)
(-0.2119255783 -0.00694346081 0)
(-0.2224098076 -0.06664887163 0)
(-0.2254809237 -0.1307973116 0)
(-0.2175676152 -0.1931424831 0)
(-0.1948845219 -0.2433577937 0)
(-0.1550604494 -0.2667833508 0)
(-0.1005538742 -0.2470776432 0)
(-0.04373770309 -0.1750839633 0)
(-0.004125427653 -0.06266024413 0)
(-0.001234235243 0.05211291986 0)
(-0.01215221939 0.1227248839 0)
(-0.02862874528 0.1659332486 0)
(-0.04774325366 0.1888148764 0)
(-0.06718039204 0.1972910879 0)
(-0.08606477959 0.1953656274 0)
(-0.1042323447 0.1851384901 0)
(-0.1218530122 0.1672378681 0)
(-0.1392053648 0.1413408768 0)
(-0.1564869172 0.1066381433 0)
(-0.1736206808 0.06223667943 0)
(-0.1900285635 0.007579285931 0)
(-0.2043314159 -0.0569935664 0)
(-0.2140167324 -0.1293489786 0)
(-0.2151718522 -0.2042043136 0)
(-0.2025808092 -0.2712198191 0)
(-0.1709870168 -0.3131489643 0)
(-0.1189626904 -0.3064193499 0)
(-0.05654201908 -0.2300279687 0)
(-0.006265779907 -0.08766353962 0)
(-0.001371968357 0.05842947627 0)
(-0.01221287639 0.1363673491 0)
(-0.02730492671 0.1829075066 0)
(-0.04361952319 0.2065237979 0)
(-0.05894924824 0.2144540499 0)
(-0.07274730779 0.2116142303 0)
(-0.08524552677 0.2006396298 0)
(-0.09702892423 0.1824172317 0)
(-0.1088247719 0.1566766578 0)
(-0.1213455879 0.1224763674 0)
(-0.135127874 0.07858075399 0)
(-0.1503191357 0.02380944822 0)
(-0.166355376 -0.04249430871 0)
(-0.1814932461 -0.1196663447 0)
(-0.1921959719 -0.2042242357 0)
(-0.1925738299 -0.2872953859 0)
(-0.1747659037 -0.3509127108 0)
(-0.132469858 -0.3650654964 0)
(-0.07028470089 -0.2931439282 0)
(-0.009322407344 -0.1203267584 0)
(-0.001874577343 0.06519233164 0)
(-0.01372180587 0.1494833261 0)
(-0.0276139569 0.1976423005 0)
(-0.04042168372 0.2202440171 0)
(-0.05022938847 0.2262330969 0)
(-0.05709675393 0.2215429861 0)
(-0.06184218064 0.209341896 0)
(-0.06555309025 0.1907721153 0)
(-0.06942017221 0.1656506833 0)
(-0.07464624229 0.1329876348 0)
(-0.08235208854 0.09133569358 0)
(-0.09342976325 0.03905178561 0)
(-0.108278741 -0.02539888814 0)
(-0.1263326696 -0.1028721283 0)
(-0.1452375008 -0.1922506055 0)
(-0.1596176871 -0.2876469955 0)
(-0.1601337905 -0.3730981932 0)
(-0.13563975 -0.415069405 0)
(-0.08260174351 -0.3600315798 0)
(-0.01345780591 -0.1615071141 0)
(-0.003112711259 0.07369519896 0)
(-0.01814711783 0.1630902622 0)
(-0.03134140764 0.2100230249 0)
(-0.03977451559 0.228876119 0)
(-0.04231348982 0.2309292167 0)
(-0.04013002686 0.2231473442 0)
(-0.03490838629 0.2090886379 0)
(-0.02833623534 0.1900365873 0)
(-0.02205399359 0.1658569461 0)
(-0.01767407468 0.1355550529 0)
(-0.01678500745 0.09760280035 0)
(-0.02090654846 0.05012064185 0)
(-0.03134989031 -0.008988283959 0)
(-0.04888028663 -0.08179265429 0)
(-0.07294304121 -0.1695616427 0)
(-0.1000236955 -0.270453752 0)
(-0.1212321412 -0.3735552022 0)
(-0.1219858676 -0.4468421761 0)
(-0.08930117342 -0.4227285233 0)
(-0.01846210709 -0.2107665516 0)
(-0.005600575544 0.086456056 0)
(-0.02746935483 0.1789715389 0)
(-0.04017563787 0.2198189556 0)
(-0.0422770822 0.2308186168 0)
(-0.03467553133 0.2263406806 0)
(-0.0205074282 0.2140798537 0)
(-0.002651319537 0.1975809331 0)
(0.0165460263 0.1779930888 0)
(0.03506136546 0.1550936849 0)
(0.05100649256 0.1278663034 0)
(0.06249998409 0.0947984105 0)
(0.06759814234 0.05400193773 0)
(0.06429289538 0.003221150844 0)
(0.05064249342 -0.06022710744 0)
(0.02524787274 -0.1393699379 0)
(-0.01124593735 -0.2365033303 0)
(-0.05273809103 -0.348243772 0)
(-0.08412401923 -0.4506185503 0)
(-0.08387657723 -0.4701313869 0)
(-0.02313040645 -0.2659871153 0)
(-0.009897753593 0.1087797978 0)
(-0.04322131272 0.1993749206 0)
(-0.05280081165 0.2252137192 0)
(-0.04278122972 0.2224924259 0)
(-0.0192800127 0.2086442811 0)
(0.01148515429 0.1908958269 0)
(0.04537545349 0.1719225878 0)
(0.07958013827 0.1522605336 0)
(0.1119423015 0.1313650588 0)
(0.1405546908 0.1081339799 0)
(0.1634985245 0.08113429738 0)
(0.1786740473 0.04865859344 0)
(0.183683715 0.008663510097 0)
(0.1757939083 -0.04147412328 0)
(0.1520355441 -0.1054337464 0)
(0.1100299304 -0.1884740979 0)
(0.05110882713 -0.2955014977 0)
(-0.01338685606 -0.4172883807 0)
(-0.05720701046 -0.4884428497 0)
(-0.02470801383 -0.3235745692 0)
(-0.01777569246 0.1518202004 0)
(-0.06136226507 0.2236735618 0)
(-0.05253895263 0.2174953654 0)
(-0.0149324512 0.1945678297 0)
(0.03449798965 0.1705544305 0)
(0.08735216421 0.1485272869 0)
(0.1396887327 0.1288790454 0)
(0.1892527136 0.1110011865 0)
(0.2344678112 0.09383045447 0)
(0.2739366038 0.07616092612 0)
(0.3061205773 0.0567269922 0)
(0.3291365651 0.03416845048 0)
(0.3405856345 0.006939275263 0)
(0.3374432607 -0.02696392772 0)
(0.3158709453 -0.07069958026 0)
(0.2712461664 -0.130181663 0)
(0.1993507558 -0.2162769835 0)
(0.1024143586 -0.3382137977 0)
(0.004012117171 -0.4566458001 0)
(-0.01604349583 -0.3691119123 0)
(-0.02416622266 0.2083946724 0)
(-0.03782258229 0.2304875187 0)
(0.03732415611 0.1765518637 0)
(0.1249693148 0.1367367092 0)
(0.2055161343 0.10883988 0)
(0.2774249258 0.08794668113 0)
(0.3414023635 0.0718585785 0)
(0.3977773144 0.05897780892 0)
(0.4466333568 0.04790890838 0)
(0.4877429893 0.03751293218 0)
(0.5204716399 0.02681706049 0)
(0.5435678052 0.01495270037 0)
(0.555117062 0.001030369616 0)
(0.552432705 -0.01603079122 0)
(0.5316632244 -0.03806662488 0)
(0.4873026107 -0.06900364146 0)
(0.410858675 -0.1190443485 0)
(0.2906776037 -0.2093525029 0)
(0.1330101611 -0.3382970313 0)
(0.03867749064 -0.3403200571 0)
(0.24191894 0.1091722048 0)
(0.3135723324 0.09717376961 0)
(0.4444881091 0.05699307593 0)
(0.5497676326 0.03510105634 0)
(0.6240880875 0.0237076966 0)
(0.679469215 0.01666732461 0)
(0.723175566 0.01194208941 0)
(0.7583409441 0.008672434285 0)
(0.7865397292 0.006257237761 0)
(0.8085825379 0.004257603729 0)
(0.8246492623 0.002371375424 0)
(0.8343561743 0.0003898980054 0)
(0.8368222844 -0.001864798045 0)
(0.8306045429 -0.00455528491 0)
(0.8133706754 -0.008008198309 0)
(0.7812012017 -0.01289301831 0)
(0.7257805512 -0.02126706211 0)
(0.6299239926 -0.03813553662 0)
(0.4592790346 -0.08560220593 0)
(0.3048847297 -0.1257057101 0)
)


// ************************************************************************* //
