/*--------------------------------*- C++ -*----------------------------------*\
  =========                 |
  \\      /  F ield         | OpenFOAM: The Open Source CFD Toolbox
   \\    /   O peration     | Website:  https://openfoam.org
    \\  /    A nd           | Version:  13
     \\/     M anipulation  |
\*---------------------------------------------------------------------------*/
FoamFile
{
    format      ascii;
    class       vectorField;
    location    "28";
    object      U_all;
}
// * * * * * * * * * * * * * * * * * * * * * * * * * * * * * * * * * * * * * //


400
(
(1.093504632e-05 -3.787766488e-05 0)
(-0.0006661660861 0.0004130305059 -1.546782324e-23)
(-0.002185374946 0.0009203817132 0)
(-0.004047797014 0.001312763162 0)
(-0.005971800155 0.001535045636 6.838718386e-25)
(-0.007762688277 0.001569827866 4.151917386e-24)
(-0.009284429895 0.001423545831 -7.352096762e-24)
(-0.01043581341 0.001119709338 7.552481426e-24)
(-0.01113668256 0.0006960738735 -2.097041714e-25)
(-0.01132698505 0.0002030751647 -3.997178346e-24)
(-0.01097166016 -0.0003002295241 5.806303265e-24)
(-0.01007223651 -0.0007475072884 -5.931739427e-23)
(-0.00867981452 -0.001075551161 -6.554926002e-23)
(-0.006902815228 -0.00123303365 -7.786689548e-23)
(-0.004910726683 -0.001192631602 4.575063453e-24)
(-0.002927241841 -0.0009619192294 -4.139442181e-24)
(-0.001205322518 -0.0005912163634 -1.999741631e-22)
(-1.909410132e-05 -0.000169891654 0)
(0.0005181356161 0.0001720754306 1.513662608e-25)
(0.0002227466229 0.0003059725252 -2.605375088e-24)
(-0.0002633937087 0.000828895191 1.386547556e-25)
(-0.002703307773 0.003383768497 1.556501148e-23)
(-0.006907203577 0.005604404162 1.548263087e-25)
(-0.01195216277 0.007008095706 -8.481642872e-25)
(-0.01713480476 0.00755366185 1.160109009e-24)
(-0.02197504308 0.007294095758 1.304697735e-23)
(-0.0261103944 0.006321811054 1.40990426e-24)
(-0.02926524575 0.00475413819 -7.303658425e-24)
(-0.03122631603 0.002737129307 1.016330161e-23)
(-0.03184160691 0.0004524166524 4.512921569e-24)
(-0.03102724578 -0.001884101916 -6.321804442e-24)
(-0.02879285201 -0.004022961971 2.961316201e-24)
(-0.02527113761 -0.005708272953 3.896702811e-23)
(-0.0207317773 -0.006707327223 -1.95551065e-24)
(-0.01558952675 -0.006854070698 3.755999724e-24)
(-0.01038509512 -0.006097418777 -9.746213175e-23)
(-0.005730275762 -0.004546170563 9.642866625e-23)
(-0.002233389835 -0.002507430176 -3.969458355e-25)
(-0.0001817956022 -0.0005023998884 4.069568619e-25)
(8.343260208e-05 0.0006099043935 0)
(-0.0004188248548 0.002935016183 -2.913896364e-25)
(-0.004647823742 0.008803860963 1.706641413e-23)
(-0.01137180029 0.01324020229 -8.2397273e-24)
(-0.01932700188 0.01579178575 -2.068369702e-25)
(-0.02747369854 0.01652974321 2.031957578e-25)
(-0.03511725548 0.01564418622 7.496971602e-27)
(-0.04171282665 0.01335979561 -1.241750422e-24)
(-0.04683503903 0.009919657672 -4.564846867e-25)
(-0.05014918998 0.005602396075 -1.064204042e-23)
(-0.05141163292 0.0007444608113 0)
(-0.05047729347 -0.00424167144 0)
(-0.04733650146 -0.008887023604 2.672180707e-23)
(-0.04215881695 -0.01268157273 2.814134222e-23)
(-0.03531402331 -0.01513584747 -1.646917417e-24)
(-0.02738972337 -0.01586171082 4.848436755e-23)
(-0.01916991985 -0.01467320052 9.424359747e-23)
(-0.01156084625 -0.01169352197 3.980958226e-23)
(-0.005465398869 -0.007450722436 4.158815999e-25)
(-0.001451105596 -0.002936067912 1.06508111e-25)
(-9.072697815e-05 0.0002258457942 0)
(-0.0005024578239 0.00604524371 -4.253308835e-23)
(-0.00640264412 0.0163704767 -1.696857658e-23)
(-0.01553478058 0.02355894278 8.16659561e-24)
(-0.02627870495 0.02744118206 0)
(-0.03728688144 0.02832058215 0)
(-0.04768963701 0.0265873366 0)
(-0.05679577258 0.02263090209 -4.536677978e-26)
(-0.06405290282 0.01683590523 -2.12477891e-24)
(-0.06900984192 0.009622124321 0)
(-0.07130731659 0.001491121138 1.638271279e-24)
(-0.07070762682 -0.006936314887 2.804563705e-25)
(-0.067129576 -0.01492990421 -2.812416422e-25)
(-0.06069835839 -0.02166693555 0)
(-0.05180694769 -0.0263156904 4.135744458e-23)
(-0.04114950597 -0.02816036397 -4.684074406e-23)
(-0.02971943111 -0.02677344028 -2.764657107e-23)
(-0.01873701435 -0.0222151154 -3.966186506e-23)
(-0.009487962434 -0.01521913447 7.795851143e-25)
(-0.002976865389 -0.007298192317 9.784643343e-23)
(-0.0002318775933 -0.0008661982762 0)
(-0.0005316046346 0.01009484577 4.273996449e-23)
(-0.00798346467 0.02595175967 4.778202488e-25)
(-0.01939656429 0.03642822736 -4.669069727e-25)
(-0.03282330636 0.04185453804 0)
(-0.04664616762 0.0428941978 7.775836443e-25)
(-0.05985139217 0.04020016697 -7.668021629e-25)
(-0.07163186281 0.03434697494 3.670030662e-23)
(-0.08132635961 0.02585636551 1.845857562e-23)
(-0.08836480549 0.01527289334 6.232553058e-24)
(-0.09225348912 0.003246244456 -1.640179881e-24)
(-0.09260264 -0.009407560414 0)
(-0.08917449038 -0.02167436383 4.374364089e-25)
(-0.08195885918 -0.0323669341 1.010286083e-23)
(-0.07126808104 -0.04021194015 -4.351934567e-23)
(-0.05781959103 -0.0440199186 1.934509461e-24)
(-0.0427854099 -0.04294782501 4.222590359e-23)
(-0.02775424533 -0.03683312482 -3.850287062e-25)
(-0.01455049515 -0.02652701329 0)
(-0.004859422509 -0.01408448409 5.436447446e-23)
(-0.0003641437487 -0.002846968808 -2.564476402e-22)
(-0.0005272128794 0.01499902866 9.836864951e-23)
(-0.009377780271 0.03738960809 -4.904154655e-25)
(-0.02288147859 0.05170139749 0)
(-0.03882985465 0.05894091438 0)
(-0.05538576 0.06025485557 -8.729778407e-23)
(-0.07142775553 0.05661823318 -8.496793926e-23)
(-0.08606536398 0.04880108825 -4.065064082e-23)
(-0.0985495619 0.03743942736 -1.503223554e-23)
(-0.1081931632 0.02315970698 -5.363324732e-24)
(-0.114343088 0.006709795293 -8.171801799e-24)
(-0.116403271 -0.01093257231 6.597713832e-24)
(-0.1138924747 -0.02848890275 8.820426837e-24)
(-0.106547562 -0.04436976843 -1.892262082e-23)
(-0.0944670714 -0.05675256422 4.581225368e-24)
(-0.07826779414 -0.06378221169 0)
(-0.05922838655 -0.06393425835 -1.575650747e-23)
(-0.0393394523 -0.05653761732 -2.342150377e-26)
(-0.02114169495 -0.04235774148 0)
(-0.007318636437 -0.02398214188 -1.520058254e-22)
(-0.0005216096144 -0.005925533081 6.055049017e-22)
(-0.0004990761212 0.02064541263 -9.76986149e-23)
(-0.0105293641 0.05045357947 2.83149421e-22)
(-0.02582922127 0.06912404568 1.526616627e-22)
(-0.0440207927 0.07849140913 3.618528505e-24)
(-0.06310656712 0.08029363285 -7.319152674e-23)
(-0.08190301447 0.07587944242 9.041098503e-23)
(-0.09947642445 0.06621614226 -3.589455423e-24)
(-0.1150213933 0.05201645971 -1.728769461e-24)
(-0.1277504898 0.03392339566 2.523557954e-24)
(-0.1368457985 0.0127024498 7.379636799e-24)
(-0.1414696077 -0.01058741412 -6.497651723e-24)
(-0.1408234401 -0.03445958042 -9.781230263e-24)
(-0.1342733324 -0.05692685591 -3.261764937e-23)
(-0.1215439168 -0.07553217783 -3.657279428e-23)
(-0.1029663527 -0.0875415886 5.637416309e-25)
(-0.07976300595 -0.09039114712 0)
(-0.05426635932 -0.08244435306 0)
(-0.02987135371 -0.06397682444 -2.905137154e-24)
(-0.01066275869 -0.03798767032 2.969565825e-24)
(-0.0007350848212 -0.01050084135 1.027858057e-22)
(-0.0004479137263 0.02687209851 0)
(-0.01134910288 0.06480659553 2.001948231e-22)
(-0.02801567716 0.08829487497 8.96201312e-23)
(-0.0479980326 0.1001220853 0)
(-0.06920525811 0.1027062967 1.569638252e-22)
(-0.09044276839 0.09781460111 0)
(-0.1107820349 0.08661010696 -1.428243026e-22)
(-0.1294081128 0.06983889971 6.514728163e-24)
(-0.1454758124 0.04808206846 0)
(-0.1580337862 0.02201765913 0)
(-0.1660119504 -0.007333995284 -1.37418512e-24)
(-0.1682658035 -0.03838764768 -9.314523056e-25)
(-0.1637052026 -0.06883876077 1.49168437e-22)
(-0.1515197365 -0.09558158837 -4.704607295e-23)
(-0.1315124847 -0.1148286219 -2.560068789e-24)
(-0.1045588422 -0.1225691367 1.533829334e-24)
(-0.07309296284 -0.1155507545 -1.55802439e-24)
(-0.04134990729 -0.09283038679 0)
(-0.01525218527 -0.05740724556 3.2033195e-24)
(-0.001044298231 -0.01714703564 -1.012786136e-21)
(-0.000374468187 0.03346256728 0)
(-0.01174996469 0.07998805993 -1.128052652e-22)
(-0.02920683129 0.1086376063 -6.190626991e-22)
(-0.05031701984 0.1232217867 -3.755036083e-22)
(-0.07296255857 0.1269081514 0)
(-0.09598881538 0.1219242101 4.119161891e-22)
(-0.1185264178 0.1096338055 1.260796655e-22)
(-0.1398136007 0.09078175658 -5.581364589e-24)
(-0.1590210382 0.06581361777 5.553739832e-24)
(-0.1751449422 0.03520889104 0)
(-0.18695483 -0.0001962898907 2.911921384e-23)
(-0.1930161158 -0.03889674463 4.695341647e-24)
(-0.1917798912 -0.07843779979 -1.076651917e-22)
(-0.1817864232 -0.1151852382 8.002707e-23)
(-0.1620561388 -0.1442585263 -2.419424882e-22)
(-0.1327054514 -0.1598534395 0)
(-0.09577832777 -0.1563100017 0)
(-0.05601599386 -0.1302971048 0)
(-0.0214784542 -0.08381074579 0)
(-0.001500371748 -0.02665498556 5.571473468e-22)
(-0.0002873969747 0.04016025832 0)
(-0.01169354874 0.09543488863 -3.492753545e-22)
(-0.02924424082 0.1294057412 8.932244764e-22)
(-0.05060920822 0.1469281592 3.616917096e-22)
(-0.07370043296 0.1519731769 0)
(-0.09745099862 0.1472743235 -3.862277889e-22)
(-0.1211063727 0.1344180435 -3.174237076e-23)
(-0.1440317953 0.1141385649 3.332933265e-22)
(-0.1655135944 0.08669971279 1.769385422e-22)
(-0.1846240997 0.05229129631 -4.059954655e-23)
(-0.2001318219 0.0114176168 1.65680289e-23)
(-0.2104614892 -0.03471343187 -8.264700499e-24)
(-0.2137201095 -0.08376452377 3.371671025e-22)
(-0.2078208277 -0.1318742838 0)
(-0.1908231712 -0.1732741042 2.420593753e-22)
(-0.1616329639 -0.2002577768 5.773778009e-24)
(-0.1211657777 -0.2040106953 -5.859882126e-24)
(-0.07384957149 -0.1772107805 1.548115394e-22)
(-0.02971772213 -0.1188634493 -5.43444703e-24)
(-0.002179530536 -0.04005373261 0)
(-0.0002117321079 0.04671587026 0)
(-0.01125002179 0.1105485494 0)
(-0.0281562335 0.1497338198 -5.022480515e-22)
(-0.04874473626 0.1701499336 -1.880906341e-23)
(-0.07100075435 0.1766239586 2.038281123e-23)
(-0.09399435164 0.1724511266 -2.014214772e-23)
(-0.1171432292 0.1594859142 -2.316777357e-23)
(-0.1400177304 0.1384797261 -3.029666871e-22)
(-0.1621326665 0.1095157153 6.698559638e-23)
(-0.182795689 0.07245193147 4.512953732e-23)
(-0.2009833495 0.02734973753 -4.577492288e-23)
(-0.2152268199 -0.02508618626 0)
(-0.2235559976 -0.08298243434 -7.83882503e-23)
(-0.2234629606 -0.1427244199 0)
(-0.2120676404 -0.1981806008 -3.739369305e-22)
(-0.18674312 -0.2400757868 5.2445925e-22)
(-0.1464435027 -0.2560757814 0)
(-0.09394541833 -0.2331195912 -1.493671672e-22)
(-0.04021987347 -0.1639604276 1.937216295e-22)
(-0.003201084713 -0.05861029725 -3.411196667e-22)
(-0.0002015573283 0.05297534477 0)
(-0.01067269166 0.1248160096 9.182543392e-22)
(-0.02628459856 0.1687408041 -2.44058963e-23)
(-0.04501125109 0.1916437057 9.193014672e-22)
(-0.06494617616 0.1992903668 -2.511988908e-23)
(-0.08536651118 0.1956089311 2.83873796e-23)
(-0.1059308199 0.1827875334 -2.812824989e-23)
(-0.126492711 0.1616576101 -1.660859985e-23)
(-0.1469000199 0.1321759148 -5.260050416e-22)
(-0.1668461918 0.09389655668 -8.906329137e-24)
(-0.1857307057 0.04640621372 9.659887262e-24)
(-0.2024785762 -0.01023709483 3.312988207e-22)
(-0.2154158354 -0.07499720385 -5.820552776e-22)
(-0.2220212671 -0.1450299876 0)
(-0.2188033908 -0.2146747082 8.886957956e-22)
(-0.2016258002 -0.2740001745 -4.940546974e-22)
(-0.1668638514 -0.30757969 -1.572113176e-23)
(-0.114021884 -0.2953797988 0)
(-0.05288472014 -0.2195792215 -1.889855599e-22)
(-0.004749173336 -0.08377237534 3.360260195e-22)
(-0.0003642179308 0.05902272956 1.550959855e-23)
(-0.01049587127 0.1379870271 -8.763886221e-22)
(-0.02441416661 0.1856788707 -1.157025294e-21)
(-0.04026764477 0.2101367751 -8.628683408e-22)
(-0.05630780864 0.2182332538 0)
(-0.0721491764 0.2146176237 3.513696846e-23)
(-0.08779291644 0.2018781397 -7.294645781e-23)
(-0.1034570628 0.1809999109 5.867713181e-23)
(-0.1193992469 0.151899487 3.021274503e-22)
(-0.1357940758 0.1139152011 -1.128165481e-23)
(-0.1526091917 0.06621471565 0)
(-0.1694530981 0.008177919217 -3.603830935e-22)
(-0.1852769747 -0.06015897609 7.515488855e-22)
(-0.1980456684 -0.137273667 8.831510057e-22)
(-0.204355287 -0.2189250469 -5.296443642e-22)
(-0.1990982204 -0.2959700518 5.16251993e-22)
(-0.1760607769 -0.3514059462 1.078129466e-23)
(-0.1300891249 -0.3584137897 -1.095442845e-23)
(-0.06688799974 -0.2843266077 -8.218467838e-23)
(-0.007083308816 -0.1169959921 0)
(-0.0009095987519 0.06540005629 -1.911435309e-23)
(-0.01167609853 0.1502806907 -1.326933316e-21)
(-0.02388921268 0.2000646134 1.094205693e-21)
(-0.03601400534 0.2244201888 6.734761877e-22)
(-0.04657387611 0.2316573637 6.014481481e-22)
(-0.05577133465 0.2272381244 6.643791304e-22)
(-0.0641135404 0.2141765699 -4.458565143e-23)
(-0.0722768082 0.1936489058 -3.461258436e-22)
(-0.08097100522 0.1656026853 2.1521161e-22)
(-0.09087325404 0.1292709373 0)
(-0.1025561003 0.0835313071 0)
(-0.1163635576 0.02720078909 2.655351372e-22)
(-0.1321602418 -0.04061925787 8.194392904e-23)
(-0.1489264109 -0.1200119658 -2.821535456e-22)
(-0.1641294424 -0.2089291641 -5.411163156e-23)
(-0.1727885532 -0.3006982969 1.301957418e-22)
(-0.1670316592 -0.3793318869 -3.400343861e-22)
(-0.1365295053 -0.4136441378 -1.595331236e-23)
(-0.08018255722 -0.3538316794 8.207236212e-23)
(-0.01050761968 -0.1594126016 -6.032442284e-22)
(-0.002260519606 0.073488588 0)
(-0.01580377083 0.1626514524 2.145825625e-21)
(-0.02665090398 0.2117893956 0)
(-0.03422414618 0.2333934804 -1.351776803e-21)
(-0.03759498222 0.2377754573 6.184119907e-23)
(-0.03799805729 0.2312543053 -6.192939312e-22)
(-0.03668402121 0.2171891377 -4.756179824e-22)
(-0.03489183795 0.1968930355 8.3010736e-22)
(-0.03378992289 0.1703341651 -1.885657243e-22)
(-0.03450033146 0.1367223403 0)
(-0.03811728043 0.09479720837 0)
(-0.04565142912 0.04304349538 2.410648821e-23)
(-0.05790946969 -0.02013710576 -6.00710064e-22)
(-0.0751472999 -0.09620578846 -4.309493459e-22)
(-0.09645291052 -0.1855549256 4.63779229e-22)
(-0.1183472173 -0.2853560983 -6.488571693e-22)
(-0.1332722447 -0.3838379429 9.119659866e-23)
(-0.1265355153 -0.45043512 2.93890216e-23)
(-0.08899168463 -0.4198528974 5.660567447e-22)
(-0.01526918743 -0.2111715628 6.021074494e-22)
(-0.005180917715 0.0859803355 0)
(-0.02525572654 0.1766286502 1.465584735e-22)
(-0.03483458703 0.2205953852 -4.917048816e-23)
(-0.03640095239 0.2354849954 7.642767631e-22)
(-0.03018592732 0.2343397239 -7.005223553e-22)
(-0.01916712764 0.2241595621 4.746381167e-23)
(-0.005616641658 0.2083519816 -1.018594632e-22)
(0.008568013152 0.1881237826 -3.389817961e-22)
(0.02179721543 0.1633910845 2.062785821e-22)
(0.03262618745 0.1333244864 0)
(0.0395830193 0.09664127401 0)
(0.04116866128 0.0517411017 -2.902625189e-22)
(0.03578347352 -0.003254814852 0)
(0.0219806056 -0.07058303557 -5.512119862e-22)
(-0.001265942594 -0.1525730318 -1.492288043e-23)
(-0.03310562181 -0.2505945234 2.559664385e-23)
(-0.06909309547 -0.3599337063 2.203010809e-22)
(-0.09227875271 -0.4575420181 4.788856304e-24)
(-0.08718109548 -0.4698124547 -5.789544627e-22)
(-0.02103129195 -0.2698969121 0)
(-0.01111632502 0.1085974866 0)
(-0.04248919784 0.1947149464 -8.848331364e-22)
(-0.04795573339 0.2258190916 -5.410960606e-22)
(-0.03919610047 0.2282129335 4.543741205e-22)
(-0.01877932849 0.2182321467 -1.710003876e-24)
(0.007663047765 0.2028214323 -4.560961926e-23)
(0.03667849909 0.1847615247 5.696567029e-22)
(0.0658284524 0.1647115577 -2.766839786e-23)
(0.09326974538 0.1423127692 -2.069744374e-22)
(0.1173876354 0.1166276434 3.142162934e-23)
(0.1365447296 0.08641174679 -3.4258677e-23)
(0.1489656057 0.05017710116 -3.69054787e-23)
(0.1525264005 0.006159620339 3.205594529e-22)
(0.1449356772 -0.04796083486 6.119531381e-22)
(0.123515094 -0.1153049179 -5.101102331e-22)
(0.08633460462 -0.2004192717 -1.616007009e-22)
(0.03199025508 -0.306780432 1.531355389e-22)
(-0.02362168744 -0.4239834858 7.293721339e-23)
(-0.06492431594 -0.4871610189 1.913300909e-21)
(-0.0250997425 -0.3291542711 2.955001986e-21)
(-0.02004679792 0.1460728008 -4.390162305e-23)
(-0.06416414452 0.2112955481 4.41733478e-23)
(-0.05070257019 0.217729847 1.000175153e-21)
(-0.01934146957 0.2014676604 -8.269991892e-24)
(0.02414390637 0.1809072153 0)
(0.07154025017 0.1606929449 4.363637045e-23)
(0.1190691972 0.1416492373 -2.27380708e-22)
(0.1644754807 0.123317986 -9.027775675e-23)
(0.2062238225 0.1048116709 3.680663983e-23)
(0.2429630358 0.0850714753 -1.701628853e-23)
(0.2732195738 0.06296166125 3.429920949e-23)
(0.2952525546 0.03726319643 -6.592591021e-23)
(0.3066961862 0.006535358028 -9.303806241e-23)
(0.3049730553 -0.0308774208 1.517022258e-22)
(0.2863929934 -0.07786267729 0)
(0.2470563051 -0.1399298761 1.505554093e-22)
(0.1810918161 -0.2266299018 2.560018349e-22)
(0.09604419807 -0.3443894045 0)
(-0.006697771497 -0.4552209255 -3.675649892e-21)
(-0.01922410745 -0.3777536698 -2.892631103e-21)
(-0.02591949459 0.2276829433 -9.514174093e-22)
(-0.03998321621 0.2238216964 -1.388964024e-22)
(0.03656133683 0.1810584975 -2.335548632e-22)
(0.1090501392 0.1451057887 -1.193724717e-22)
(0.1817187786 0.1172443758 -4.295753924e-23)
(0.249008546 0.09627889217 9.782953288e-23)
(0.3100329804 0.08002494666 -1.408559776e-22)
(0.3646201257 0.06656804762 1.297148729e-22)
(0.4126243806 0.05449174942 -8.619956502e-23)
(0.4536241605 0.04270897673 1.132186581e-25)
(0.4867870562 0.03032306805 1.527718962e-23)
(0.5107444153 0.01652914053 7.997093423e-23)
(0.5236591502 0.0005366443025 -1.811099526e-22)
(0.5231793471 -0.01863360591 -1.617124348e-22)
(0.5052320079 -0.04286468724 -4.262820094e-23)
(0.4658712728 -0.07633224749 0)
(0.3952694792 -0.1286089181 -1.846505953e-22)
(0.2916069764 -0.2208468039 8.148791982e-22)
(0.1197454328 -0.3525016847 1.631606287e-21)
(0.02670545295 -0.3775497862 2.172658227e-21)
(0.2142894662 0.1347447397 9.864955641e-22)
(0.2776311789 0.09870505987 0)
(0.4316592964 0.05810415967 -2.594291021e-22)
(0.5304749628 0.03846264559 -1.74163859e-22)
(0.6016965246 0.02623417571 0)
(0.6571197479 0.01831921521 -6.008946182e-23)
(0.7015211202 0.01313599171 6.377844248e-23)
(0.7376039407 0.009542117141 -1.800113634e-23)
(0.7669364962 0.006804464718 2.885909012e-23)
(0.7902103235 0.004464755308 2.314987925e-23)
(0.80745519 0.002221339437 0)
(0.8182618828 -0.0001500503371 -2.872989419e-23)
(0.8216497913 -0.002723822383 0)
(0.8162393148 -0.005712649093 2.738081092e-23)
(0.7991332698 -0.009611371285 1.421630732e-23)
(0.7679986295 -0.01500254793 -5.799462373e-23)
(0.7106555859 -0.02502520461 -2.535677633e-22)
(0.6235184047 -0.04204286007 -6.91812409e-22)
(0.4230091011 -0.09182968705 0)
(0.270567467 -0.1524021869 -2.119486035e-21)
)


// ************************************************************************* //
