/*--------------------------------*- C++ -*----------------------------------*\
  =========                 |
  \\      /  F ield         | OpenFOAM: The Open Source CFD Toolbox
   \\    /   O peration     | Website:  https://openfoam.org
    \\  /    A nd           | Version:  13
     \\/     M anipulation  |
\*---------------------------------------------------------------------------*/
FoamFile
{
    format      ascii;
    class       vectorField;
    location    "31.81";
    object      U_all;
}
// * * * * * * * * * * * * * * * * * * * * * * * * * * * * * * * * * * * * * //


400
(
(1.097086376e-05 -3.785576261e-05 0)
(-0.0006661319796 0.0004130375692 -1.549019918e-23)
(-0.002185381794 0.0009203910841 0)
(-0.00404782964 0.001312777268 0)
(-0.005971857153 0.001535061814 6.842082259e-25)
(-0.007762766249 0.001569843985 4.151200116e-24)
(-0.009284524 0.001423560272 -7.362903435e-24)
(-0.01043591742 0.001119720864 7.541436478e-24)
(-0.01113678924 0.0006960813338 -2.09608174e-25)
(-0.01132708707 0.0002030776184 -3.995770418e-24)
(-0.01097175082 -0.0003002324181 5.804831115e-24)
(-0.01007231036 -0.0007475144663 -5.930642091e-23)
(-0.008679867857 -0.001075560448 -6.553795128e-23)
(-0.006902846407 -0.001233042256 -7.785459512e-23)
(-0.004910736596 -0.001192636967 4.574254408e-24)
(-0.002927234358 -0.0009619197919 -4.138588596e-24)
(-0.001205304121 -0.0005912120667 -1.999187174e-22)
(-1.907410715e-05 -0.0001698841041 0)
(0.0005181494814 0.0001720841153 1.511440832e-25)
(0.0002227500412 0.000305977744 -2.576751343e-24)
(-0.0002633793216 0.0008289343372 1.384796654e-25)
(-0.002703317808 0.003383818594 1.558776978e-23)
(-0.006907270744 0.005604477109 1.551777131e-25)
(-0.01195229525 0.007008182848 -8.48915459e-25)
(-0.01713500202 0.007553752285 1.161203718e-24)
(-0.02197529685 0.007294178853 1.305779231e-23)
(-0.02611069183 0.006321878035 1.399066815e-24)
(-0.029265571 0.004754182802 -7.292852539e-24)
(-0.03122665097 0.002737147888 1.015811772e-23)
(-0.03184193248 0.0004524083879 4.511291129e-24)
(-0.03102754336 -0.001884136019 -6.320202343e-24)
(-0.02879310559 -0.004023016038 2.961844298e-24)
(-0.0252713363 -0.005708338218 3.896149275e-23)
(-0.02073191621 -0.006707392931 -1.955127897e-24)
(-0.01558960787 -0.006854125931 3.755206274e-24)
(-0.01038512732 -0.006097454784 -9.743414241e-23)
(-0.005730273809 -0.004546182966 9.63996948e-23)
(-0.002233372492 -0.002507421002 -3.964960621e-25)
(-0.0001817807433 -0.0005023775616 4.064957342e-25)
(8.343386217e-05 0.0006099217503 0)
(-0.000418826254 0.002935059987 -2.912186642e-25)
(-0.004647872079 0.008803978231 1.704354547e-23)
(-0.0113719364 0.01324037531 -8.260662593e-24)
(-0.01932724134 0.0157919877 -2.071996387e-25)
(-0.02747404093 0.01652994797 2.035519988e-25)
(-0.03511768844 0.01564437031 7.123841706e-27)
(-0.04171332979 0.01335993978 -1.231246128e-24)
(-0.04683558697 0.009919748235 -4.557876966e-25)
(-0.0501497545 0.005602425581 -1.063659143e-23)
(-0.05141218665 0.0007444281259 0)
(-0.05047780911 -0.004241759431 0)
(-0.04733695414 -0.00888715536 2.671537e-23)
(-0.0421591895 -0.01268173113 2.813534888e-23)
(-0.03531430616 -0.01513601171 -1.646513395e-24)
(-0.02738991624 -0.01586185905 4.847045212e-23)
(-0.01917003224 -0.01467331345 9.421644549e-23)
(-0.0115608964 -0.01169358718 3.978122449e-23)
(-0.005465410924 -0.007450738648 4.149646489e-25)
(-0.001451102499 -0.002936048193 1.069811369e-25)
(-9.072828016e-05 0.0002258712581 0)
(-0.0005024634728 0.006045325287 -4.251159366e-23)
(-0.006402725457 0.01637069555 -1.694572351e-23)
(-0.0155349821 0.02355925362 8.187503888e-24)
(-0.02627904507 0.02744153524 0)
(-0.03728735847 0.02832093304 0)
(-0.04769023532 0.0265876475 0)
(-0.0567964664 0.0226311431 -4.498981067e-26)
(-0.06405365997 0.01683605505 -2.131192886e-24)
(-0.06901062717 0.009622171109 0)
(-0.07130809269 0.001491063007 1.636783292e-24)
(-0.07070835938 -0.006936467766 2.803639415e-25)
(-0.06713023572 -0.01493013377 -2.811489551e-25)
(-0.06069892083 -0.02166721494 0)
(-0.05180739696 -0.02631598676 4.134383088e-23)
(-0.0411498366 -0.02816064206 -4.682723087e-23)
(-0.02971964928 -0.02677366753 -2.76315295e-23)
(-0.01873713753 -0.0222152681 -3.963306494e-23)
(-0.009488016844 -0.01521920468 7.795939868e-25)
(-0.002976878823 -0.007298194021 9.787829425e-23)
(-0.0002318803454 -0.0008661733479 0)
(-0.0005316121157 0.01009498067 4.271833388e-23)
(-0.007983570198 0.02595210642 4.781901389e-25)
(-0.01939681768 0.03642870639 -4.672683595e-25)
(-0.03282372756 0.0418550723 0)
(-0.04664675337 0.04289472121 7.779215907e-25)
(-0.05985212428 0.04020062603 -7.671354565e-25)
(-0.07163271232 0.03434732877 3.671154573e-23)
(-0.08132729047 0.02585658581 1.847090955e-23)
(-0.08836577783 0.01527296474 6.235927302e-24)
(-0.09225446167 0.003246165025 -1.638690165e-24)
(-0.09260357315 -0.009407780336 0)
(-0.08917534824 -0.02167469995 4.372358938e-25)
(-0.08195961093 -0.03236735083 1.009588793e-23)
(-0.07126870353 -0.04021239296 -4.350486015e-23)
(-0.05782007117 -0.04402035808 1.933609464e-24)
(-0.04278574711 -0.04294820298 4.21961761e-23)
(-0.02775445282 -0.03683340261 -3.845537294e-25)
(-0.01455059885 -0.02652717165 0)
(-0.00485945568 -0.01408453291 5.436534177e-23)
(-0.0003641481641 -0.002846955745 -2.564822568e-22)
(-0.0005272197199 0.01499922738 9.839100333e-23)
(-0.009377898366 0.03739009996 -4.905857537e-25)
(-0.02288176187 0.05170206382 0)
(-0.03883032488 0.05894164839 0)
(-0.05538641331 0.06025556871 -8.73100422e-23)
(-0.07142857258 0.05661885567 -8.497983359e-23)
(-0.08606631469 0.04880156815 -4.066299956e-23)
(-0.09855060935 0.03743972949 -1.503817829e-23)
(-0.1081942666 0.02315981236 -5.366313433e-24)
(-0.1143442047 0.006709700929 -8.173546677e-24)
(-0.1164043591 -0.0109328541 6.599605244e-24)
(-0.1138934943 -0.0284893441 8.823923504e-24)
(-0.1065484769 -0.04437032754 -1.892312905e-23)
(-0.09446785132 -0.05675318709 4.596028659e-24)
(-0.07826841706 -0.06378283573 0)
(-0.05922884251 -0.06393481865 -1.57408977e-23)
(-0.03933974675 -0.05653805651 -2.391021604e-26)
(-0.02114185043 -0.04235802297 0)
(-0.007318690266 -0.0239822642 -1.520389447e-22)
(-0.0005216155576 -0.00592554208 6.055752257e-22)
(-0.0004990809662 0.02064567947 -9.772075782e-23)
(-0.01052948199 0.05045422253 2.831738851e-22)
(-0.02582950697 0.06912490461 1.526738833e-22)
(-0.04402127001 0.07849234715 3.618923512e-24)
(-0.06310723327 0.08029453966 -7.319278962e-23)
(-0.08190385089 0.07588023297 9.04236608e-23)
(-0.09947740208 0.06621675439 -3.589860197e-24)
(-0.1150224768 0.05201685203 -1.72898346e-24)
(-0.1277516406 0.03392354588 2.523882001e-24)
(-0.136846976 0.01270235363 7.381272845e-24)
(-0.1414707713 -0.01058774399 -6.499438395e-24)
(-0.14082455 -0.03446011431 -9.785073983e-24)
(-0.1342743504 -0.05692754874 -3.261767327e-23)
(-0.1215448077 -0.07553296959 -3.659657324e-23)
(-0.1029670867 -0.08754240655 5.642251233e-25)
(-0.07976356264 -0.09039191071 0)
(-0.05426673305 -0.08244498378 0)
(-0.02987155911 -0.06397726191 -2.905663304e-24)
(-0.01066283337 -0.03798789278 2.970103622e-24)
(-0.0007350920979 -0.01050088407 1.027867298e-22)
(-0.0004479158191 0.02687242983 0)
(-0.01134920711 0.06480738176 2.001982431e-22)
(-0.02801593509 0.08829591596 8.962090234e-23)
(-0.04799846927 0.1001232158 0)
(-0.06920587311 0.1027073862 1.569769613e-22)
(-0.0904435458 0.09781555109 0)
(-0.1107829486 0.08661084655 -1.428326254e-22)
(-0.1294091311 0.0698393826 6.515196958e-24)
(-0.1454769011 0.04808227003 0)
(-0.1580349103 0.02201757429 0)
(-0.1660130745 -0.007334353729 -1.374316182e-24)
(-0.1682668929 -0.03838825092 -9.315843041e-25)
(-0.1637062232 -0.06883956308 1.49185733e-22)
(-0.151520654 -0.09558252819 -4.704643443e-23)
(-0.1315132657 -0.1148296217 -2.560593658e-24)
(-0.1045594575 -0.1225701047 1.534346836e-24)
(-0.07309339351 -0.1155515921 -1.558550066e-24)
(-0.04135015434 -0.09283100485 0)
(-0.01525227961 -0.05740759185 3.203604557e-24)
(-0.001044306941 -0.01714712332 -1.01286057e-21)
(-0.0003744666987 0.0334629511 0)
(-0.01175004173 0.07998896525 -1.128175085e-22)
(-0.02920703102 0.1086388009 -6.190909743e-22)
(-0.05031736703 0.1232230807 -3.755185663e-22)
(-0.07296305563 0.1269093964 0)
(-0.09598945004 0.1219252956 4.119331364e-22)
(-0.1185271682 0.1096346537 1.260870212e-22)
(-0.1398144401 0.09078231805 -5.581643842e-24)
(-0.1590219383 0.06581386734 5.554017704e-24)
(-0.1751458756 0.03520882442 0)
(-0.1869557718 -0.0001966590605 2.912049714e-23)
(-0.1930170419 -0.03889738759 4.695641476e-24)
(-0.1917807778 -0.07843867263 -1.076745129e-22)
(-0.1817872452 -0.1151862827 8.003597216e-23)
(-0.1620568672 -0.1442596675 -2.419619142e-22)
(-0.1327060537 -0.1598545833 0)
(-0.09577877302 -0.1563110359 0)
(-0.05601626437 -0.1302979113 0)
(-0.02147856428 -0.08381123225 0)
(-0.001500381989 -0.02665512823 5.571848567e-22)
(-0.0002873912476 0.04016067548 0)
(-0.01169358672 0.09543587405 -3.492900033e-22)
(-0.02924435502 0.1294070435 8.932556775e-22)
(-0.05060942156 0.1469295702 3.617061762e-22)
(-0.07370075053 0.1519745334 0)
(-0.09745141227 0.1472755046 -3.862436775e-22)
(-0.1211068653 0.1344189662 -3.174352313e-23)
(-0.1440323459 0.1141391783 3.333038902e-22)
(-0.1655141819 0.08669999384 1.769441142e-22)
(-0.1846247059 0.05229124434 -4.060079225e-23)
(-0.2001324336 0.01141724909 1.656818619e-23)
(-0.2104620976 -0.03471408398 -8.265041586e-24)
(-0.2137207083 -0.08376541847 3.371788785e-22)
(-0.2078214092 -0.1318753698 0)
(-0.1908237203 -0.1732753171 2.420788107e-22)
(-0.1616334543 -0.2002590322 5.774378826e-24)
(-0.1211661726 -0.2040118806 -5.860491908e-24)
(-0.07384983373 -0.1772117566 1.548313263e-22)
(-0.02971783942 -0.1188640786 -5.435045635e-24)
(-0.002179542197 -0.04005393736 0)
(-0.0002117221849 0.04671629618 0)
(-0.01125001266 0.1105495646 0)
(-0.02815624206 0.1497351699 -5.022637956e-22)
(-0.04874478207 0.1701514007 -1.880959227e-23)
(-0.07100084509 0.1766253684 2.038339139e-23)
(-0.09399448382 0.1724523499 -2.014272102e-23)
(-0.1171433914 0.1594868638 -2.316842878e-23)
(-0.1400179078 0.1384803519 -3.02976333e-22)
(-0.1621328457 0.1095159986 6.698603043e-23)
(-0.1827958617 0.0724518789 4.513094888e-23)
(-0.2009835153 0.02734937416 -4.577636665e-23)
(-0.2152269859 -0.02508682401 0)
(-0.2235561775 -0.0829833027 -7.839355217e-23)
(-0.223463169 -0.1427254756 0)
(-0.2120678839 -0.1981817958 -3.739490098e-22)
(-0.1867433892 -0.2400770582 5.244816032e-22)
(-0.146443766 -0.2560770342 0)
(-0.09394562637 -0.2331206829 -1.493863522e-22)
(-0.04021998309 -0.1639611813 1.937414896e-22)
(-0.00320109721 -0.0586105656 -3.411394801e-22)
(-0.0002015439392 0.05297575179 0)
(-0.01067263255 0.1248169977 9.182735963e-22)
(-0.02628449206 0.1687421332 -2.440645439e-23)
(-0.04501111196 0.1916451582 9.193206666e-22)
(-0.0649460149 0.1992917628 -2.512046944e-23)
(-0.08536633038 0.1956101355 2.838803664e-23)
(-0.1059306156 0.1827884563 -2.812890093e-23)
(-0.1264924766 0.1616582029 -1.660896882e-23)
(-0.1468997509 0.1321761652 -5.260164536e-22)
(-0.1668458897 0.09389648109 -8.906521415e-24)
(-0.1857303817 0.04640584877 9.660086982e-24)
(-0.2024782485 -0.01023770186 3.313046163e-22)
(-0.2154155347 -0.07499800858 -5.820672823e-22)
(-0.2220210295 -0.1450309498 0)
(-0.2188032458 -0.2146757961 8.887187282e-22)
(-0.2016257618 -0.2740013537 -4.940757018e-22)
(-0.1668639059 -0.3075808993 -1.572180807e-23)
(-0.1140219848 -0.295380917 0)
(-0.05288480057 -0.2195800537 -1.890050865e-22)
(-0.004749185303 -0.08377269978 3.360454906e-22)
(-0.0003642020926 0.05902308993 1.550990299e-23)
(-0.0104957647 0.1379879299 -8.764069918e-22)
(-0.0244139479 0.1856801077 -1.157045448e-21)
(-0.04026732257 0.2101381406 -8.628863624e-22)
(-0.05630739682 0.2182345685 0)
(-0.07214868581 0.2146187501 3.513764425e-23)
(-0.08779235412 0.2018789866 -7.294784478e-23)
(-0.1034564334 0.1810004313 5.867822176e-23)
(-0.1193985565 0.1518996753 3.0213338e-22)
(-0.135793336 0.1139150827 -1.128185041e-23)
(-0.1526084209 0.06621433865 0)
(-0.1694523265 0.00817734193 -3.603894918e-22)
(-0.1852762398 -0.0601597016 7.515603991e-22)
(-0.1980450124 -0.137274499 8.831632618e-22)
(-0.2043547565 -0.2189259648 -5.296558946e-22)
(-0.1990978517 -0.2959710475 5.162623601e-22)
(-0.1760605811 -0.3514070004 1.078191655e-23)
(-0.1300890754 -0.3584148244 -1.095506032e-23)
(-0.0668880266 -0.2843274454 -8.216640008e-23)
(-0.007083317815 -0.116996353 0)
(-0.0009095815257 0.06540034528 -1.911466689e-23)
(-0.01167595218 0.1502814547 -1.326952842e-21)
(-0.02388889687 0.200065692 1.094224652e-21)
(-0.03601352168 0.2244213996 6.734862472e-22)
(-0.04657324204 0.2316585363 6.014571908e-22)
(-0.05577057147 0.2272391237 6.643892466e-22)
(-0.06411267026 0.2141773059 -4.458636051e-23)
(-0.07227585069 0.1936493319 -3.461308196e-22)
(-0.08096998031 0.1656028012 2.15214573e-22)
(-0.09087218486 0.1292707732 0)
(-0.1025550116 0.08353091756 0)
(-0.1163624794 0.02720023943 2.655380418e-22)
(-0.1321592087 -0.04061990393 8.194341778e-23)
(-0.1489254636 -0.1200126618 -2.821592123e-22)
(-0.1641286276 -0.2089298915 -5.411230467e-23)
(-0.1727879176 -0.300699063 1.301951258e-22)
(-0.1670312346 -0.3793327084 -3.400437559e-22)
(-0.1365292954 -0.4136449878 -1.59448238e-23)
(-0.08018251243 -0.3538324345 8.205410878e-23)
(-0.01050762233 -0.1594129669 -6.032286035e-22)
(-0.002260502404 0.07348878702 0)
(-0.01580359821 0.1626520351 2.145855189e-21)
(-0.0266505192 0.2117902616 0)
(-0.03422354303 0.2333944812 -1.351795349e-21)
(-0.03759418068 0.2377764405 6.184071222e-23)
(-0.03799708924 0.2312551451 -6.193034114e-22)
(-0.03668292695 0.2171897495 -4.756243913e-22)
(-0.03489065368 0.1968933664 8.301187067e-22)
(-0.03378868324 0.1703342226 -1.885683367e-22)
(-0.03449907324 0.1367221521 0)
(-0.03811603332 0.09479682795 0)
(-0.04565022096 0.04304298867 2.410622506e-23)
(-0.05790832433 -0.02013767412 -6.007162037e-22)
(-0.07514624474 -0.09620636228 -4.309538865e-22)
(-0.09645197894 -0.1855554814 4.637832919e-22)
(-0.1183464503 -0.2853566434 -6.488668342e-22)
(-0.1332716777 -0.3838385131 9.119866055e-23)
(-0.1265351811 -0.4504357227 2.938005662e-23)
(-0.08899156923 -0.419853491 5.660501898e-22)
(-0.01526918092 -0.2111718919 6.020918539e-22)
(-0.005180903 0.08598043568 0)
(-0.02525555002 0.1766290273 1.465580069e-22)
(-0.03483417932 0.2205960037 -4.917105453e-23)
(-0.0364002984 0.2354857493 7.642864177e-22)
(-0.03018504579 0.234340487 -7.005315149e-22)
(-0.01916605617 0.2241602244 4.746440985e-23)
(-0.005615443341 0.2083524644 -1.01860278e-22)
(0.008569294113 0.1881240433 -3.38986186e-22)
(0.02179853756 0.1633911175 2.062808499e-22)
(0.03262749393 0.1333243143 0)
(0.03958427656 0.09664094224 0)
(0.04116984215 0.05174066962 -2.902651666e-22)
(0.03578456879 -0.003255283496 0)
(0.02198160178 -0.07058349594 -5.512158088e-22)
(-0.00126506251 -0.1525734486 -1.492359418e-23)
(-0.03310488099 -0.2505948938 2.55970513e-23)
(-0.06909250372 -0.3599340636 2.203082766e-22)
(-0.09227836532 -0.4575423665 4.788455416e-24)
(-0.08718093795 -0.4698128449 -5.789474261e-22)
(-0.02103127552 -0.2698971667 0)
(-0.01111631735 0.1085974959 0)
(-0.04248905387 0.1947151245 -8.848418479e-22)
(-0.0479553766 0.2258194607 -5.411005662e-22)
(-0.03919550496 0.2282134328 4.543783794e-22)
(-0.01877850423 0.2182326816 -1.709989968e-24)
(0.007664065282 0.2028219158 -4.561012494e-23)
(0.03667965192 0.1847618867 5.696635138e-22)
(0.06582968403 0.1647117684 -2.766870309e-23)
(0.09327100075 0.1423128071 -2.069767325e-22)
(0.1173888596 0.1166275223 3.142193436e-23)
(0.1365458843 0.08641149872 -3.425897334e-23)
(0.1489666653 0.05017677058 -3.690575091e-23)
(0.1525273449 0.006159255793 3.205616886e-22)
(0.1449364998 -0.04796118473 6.119573738e-22)
(0.1235158037 -0.1153052174 -5.101139994e-22)
(0.08633518965 -0.200419507 -1.616031752e-22)
(0.03199076641 -0.3067806141 1.531333996e-22)
(-0.02362132198 -0.423983669 7.293687966e-23)
(-0.0649241673 -0.4871612272 1.913296675e-21)
(-0.02509972208 -0.329154434 2.954997194e-21)
(-0.02004680341 0.1460727529 -4.390188094e-23)
(-0.06416407868 0.2112955788 4.417360722e-23)
(-0.0507023577 0.2177300089 1.000182609e-21)
(-0.01934107078 0.2014679322 -8.270485362e-24)
(0.02414450368 0.1809075386 0)
(0.07154103017 0.1606932576 4.363685417e-23)
(0.1190701158 0.141649487 -2.273833078e-22)
(0.1644764866 0.1233181424 -9.027881692e-23)
(0.2062248607 0.1048117166 3.680705891e-23)
(0.2429640521 0.08507141426 -1.701644781e-23)
(0.2732205237 0.06296151197 3.429950618e-23)
(0.2952534017 0.03726298816 -6.59264359e-23)
(0.3066969237 0.006535124625 -9.303866546e-23)
(0.3049736774 -0.03087764573 1.51703383e-22)
(0.2863934995 -0.07786286405 0)
(0.2470567084 -0.1399300052 1.505581539e-22)
(0.1810921425 -0.2266299607 2.560016887e-22)
(0.09604444186 -0.3443894768 0)
(-0.006697646869 -0.4552210026 -3.675643129e-21)
(-0.01922408708 -0.377753741 -2.892626479e-21)
(-0.02591950962 0.2276828929 -9.514190977e-22)
(-0.03998324047 0.2238216617 -1.388970785e-22)
(0.03656136256 0.1810585288 -2.335567156e-22)
(0.1090502722 0.1451058859 -1.193734943e-22)
(0.1817190526 0.1172445155 -4.295791625e-23)
(0.2490089699 0.09627903986 9.783077361e-23)
(0.3100335348 0.08002507258 -1.408578059e-22)
(0.3646207745 0.06656813167 1.297164206e-22)
(0.4126250784 0.0544917801 -8.620054308e-23)
(0.4536248587 0.0427089536 1.132178787e-25)
(0.4867877115 0.03032299971 1.52773242e-23)
(0.5107449943 0.01652904178 7.997158584e-23)
(0.5236596281 0.0005365393859 -1.811113141e-22)
(0.5231797114 -0.0186337079 -1.617135941e-22)
(0.5052322756 -0.04286476956 -4.262887483e-23)
(0.4658714612 -0.0763322992 0)
(0.3952696156 -0.1286089344 -1.846493574e-22)
(0.291607079 -0.2208468086 8.148779754e-22)
(0.119745495 -0.3525016891 1.631604253e-21)
(0.02670546866 -0.3775497955 2.172657234e-21)
(0.2142894506 0.1347447246 9.864974421e-22)
(0.2776311301 0.09870504041 0)
(0.4316592418 0.05810415072 -2.594306674e-22)
(0.5304749398 0.03846264891 -1.741652946e-22)
(0.601696565 0.02623418817 0)
(0.6571198669 0.01831923082 -6.009024692e-23)
(0.7015213133 0.01313600494 6.377932742e-23)
(0.7376041895 0.009542124182 -1.80013894e-23)
(0.7669367741 0.006804463403 2.885947501e-23)
(0.790210601 0.004464745703 2.315015097e-23)
(0.8074554401 0.002221323297 0)
(0.8182620859 -0.0001500704649 -2.873014946e-23)
(0.821649936 -0.002723843429 0)
(0.8162393988 -0.005712664936 2.738117687e-23)
(0.7991333057 -0.009611380605 1.421659955e-23)
(0.7679986332 -0.01500255044 -5.799435328e-23)
(0.7106555773 -0.02502520051 -2.535670426e-22)
(0.6235183991 -0.04204285524 -6.918114531e-22)
(0.4230091017 -0.09182968203 0)
(0.2705674685 -0.1524021846 -2.119485066e-21)
)


// ************************************************************************* //
