/*--------------------------------*- C++ -*----------------------------------*\
  =========                 |
  \\      /  F ield         | OpenFOAM: The Open Source CFD Toolbox
   \\    /   O peration     | Website:  https://openfoam.org
    \\  /    A nd           | Version:  13
     \\/     M anipulation  |
\*---------------------------------------------------------------------------*/
FoamFile
{
    format      ascii;
    class       volScalarField;
    location    "42";
    object      p;
}
// * * * * * * * * * * * * * * * * * * * * * * * * * * * * * * * * * * * * * //

dimensions      [0 2 -2 0 0 0 0];

internalField   nonuniform List<scalar> 
400
(
-1.494685148e-09
-0.0005292028353
-0.001174909899
-0.001674889683
-0.001909421294
-0.001829125324
-0.001409538894
-0.0006397055155
0.0004712915129
0.001879215871
0.003489672916
0.005151851106
0.006669474442
0.007832512056
0.008467528287
0.00849418862
0.007968542187
0.007096925806
0.006211623883
0.005658266551
0.0005363087617
-1.121077039e-05
-0.0005814636859
-0.0009808864883
-0.00115714432
-0.00108339566
-0.0007384823292
-0.0001073115306
0.0008104887609
0.001985786578
0.003345003654
0.004763037581
0.006070542783
0.007082287105
0.007642916342
0.007679103495
0.007237811939
0.006491308971
0.005701082047
0.005138123939
0.001207297158
0.0005222093546
-8.036113054e-05
-0.0004449008011
-0.0006060190052
-0.000571235165
-0.0003252127017
0.0001546915424
0.0008849805886
0.001858308934
0.003025017554
0.00428150143
0.005473275202
0.00641958251
0.006958786909
0.007003003306
0.006578854949
0.005826705944
0.004951817553
0.004218546676
0.001689325017
0.0008058719042
8.575176346e-05
-0.0003220882979
-0.0005307682784
-0.0005806651887
-0.0004599729736
-0.0001337671602
0.0004368269166
0.001271608946
0.002346271599
0.003573353944
0.004798587709
0.005821950104
0.006445362696
0.006536926246
0.006085002144
0.005202952331
0.004076440318
0.003041228495
0.001726725325
0.0006427101551
-0.0002209720253
-0.000716186847
-0.001022904261
-0.001206677912
-0.001253163411
-0.001108936876
-0.0007058408091
1.039491105e-05
0.001047383453
0.002337634918
0.003723973851
0.004973923854
0.005827851336
0.006076528014
0.005639411188
0.004590392421
0.003115406052
0.001682416545
0.001107579012
-0.0001551052254
-0.001163723583
-0.001776009785
-0.002228258569
-0.002603069558
-0.00287722512
-0.002972440318
-0.002783375162
-0.0022106345
-0.001201271336
0.0002117544754
0.001877261667
0.003527373868
0.004818512796
0.00542214036
0.005138359294
0.003963330779
0.002080489923
0.0001515291157
-0.0003461808248
-0.001755210068
-0.00290190677
-0.003658378982
-0.004307752054
-0.004943474864
-0.005529233927
-0.005956983827
-0.006076104121
-0.005728058994
-0.004792978836
-0.003245632217
-0.00120333224
0.001042321316
0.003048738899
0.004318054096
0.004453844498
0.003296142364
0.0009865069582
-0.00154957078
-0.002771432969
-0.004288221213
-0.005562102498
-0.006489278195
-0.007391563978
-0.008370320316
-0.009375644008
-0.01026800088
-0.01084505272
-0.01087431651
-0.01014290568
-0.008525745694
-0.00606392858
-0.003035314832
2.450076917e-05
0.002401090212
0.003396646557
0.002558539324
-0.0001174227058
-0.003372820401
-0.006251888912
-0.007833185052
-0.009217752598
-0.01033560326
-0.0115418155
-0.01294730388
-0.01449299855
-0.01601089997
-0.01724471212
-0.0178757028
-0.01757024825
-0.01605730275
-0.0132371033
-0.009304485603
-0.004842413822
-0.0008012543538
0.001702839287
0.001718822843
-0.001110951032
-0.005162554983
-0.01080840891
-0.01240671017
-0.01387275963
-0.01517907203
-0.01671437549
-0.01860716397
-0.0207991714
-0.02310234132
-0.02521028918
-0.02671280592
-0.02713453086
-0.02601421967
-0.02304041456
-0.01822321787
-0.01209225462
-0.005788646576
-0.0009331993078
0.0007648446993
-0.001752109854
-0.006568388172
-0.0163991205
-0.01796151092
-0.01945321016
-0.02089663338
-0.02272648262
-0.02510591081
-0.02799265024
-0.03119099397
-0.03435380586
-0.03698332032
-0.03845520065
-0.03808810259
-0.03530490986
-0.02981225383
-0.02193690939
-0.01287036581
-0.004726295135
-0.0002228759693
-0.001598957179
-0.006913556223
-0.02293856914
-0.0244015194
-0.0258133261
-0.02725499322
-0.02924237383
-0.0320030379
-0.03552925969
-0.03962986073
-0.04392718331
-0.04784596566
-0.05062295369
-0.05136313339
-0.04915317242
-0.0433483609
-0.03389849773
-0.02181297135
-0.009527134961
-0.0008968501572
0.0001234565708
-0.004999352604
-0.03034747496
-0.03161949459
-0.03275764571
-0.03392215113
-0.03578498991
-0.03868338828
-0.04266105639
-0.0475357184
-0.05290187663
-0.05811377752
-0.06228085111
-0.06430329183
-0.06297846801
-0.05724094933
-0.04655014415
-0.0314777905
-0.01444839875
-0.0003397898428
0.004758110972
0.00117431201
-0.03865498146
-0.03956239478
-0.04007418316
-0.04049041363
-0.04177301464
-0.04442434001
-0.04854309247
-0.05394162413
-0.06017133034
-0.06650851971
-0.07194134047
-0.07518838629
-0.07478324359
-0.06927417839
-0.05759514209
-0.03969289203
-0.01757276753
0.003288447698
0.01456939545
0.01476628007
-0.04820174278
-0.04833410906
-0.0475686102
-0.04650063484
-0.04657683244
-0.0484991929
-0.0523875369
-0.05800295029
-0.06481244396
-0.07198437758
-0.07837136681
-0.08251568519
-0.08271280596
-0.07717714084
-0.06436636867
-0.04355645076
-0.01599722402
0.01290766489
0.03300358193
0.04031373844
-0.05998678326
-0.05836268359
-0.05510797174
-0.05147877797
-0.04960321875
-0.0503110254
-0.05363381366
-0.05919387947
-0.06630613484
-0.07398018028
-0.08089754227
-0.08540410717
-0.08555538754
-0.07925640314
-0.06455122526
-0.04011436991
-0.006298603303
0.03227448019
0.06446903643
0.08326037717
-0.07625751764
-0.07071598495
-0.0626622615
-0.05497888223
-0.05039295051
-0.04951385444
-0.05206556331
-0.05740425254
-0.06460988318
-0.07247602687
-0.07947333549
-0.08372041
-0.08300429475
-0.07488695867
-0.05697460995
-0.02735300283
0.01454556917
0.06546982704
0.1143671507
0.1501663864
-0.1041682714
-0.08793801951
-0.06998766862
-0.05627508273
-0.04837598641
-0.04577948812
-0.04758017036
-0.05271446636
-0.05994068544
-0.06780049047
-0.07454640711
-0.07806998632
-0.07588246096
-0.06514146069
-0.0428569847
-0.006208709233
0.04674749647
0.1153141206
0.1914711264
0.2582796257
-0.1759735579
-0.1148879862
-0.07361163571
-0.05189152607
-0.041182585
-0.03757465436
-0.03928129099
-0.04472887828
-0.05230842532
-0.06035012824
-0.0669701243
-0.06991756482
-0.06651382091
-0.05358043382
-0.02738973839
0.01639741754
0.08272322636
0.1773670896
0.3054134294
0.4526759152
-0.3558444796
-0.1552520586
-0.07043163497
-0.04278228213
-0.03135081086
-0.02760174964
-0.02977829292
-0.03595875547
-0.04420226936
-0.05270956407
-0.05956801924
-0.06251684792
-0.05882802626
-0.04517041589
-0.01725005546
0.03080486152
0.1084145446
0.2333486628
0.4347955687
0.7358624208
)
;

boundaryField
{
    movingWall
    {
        type            zeroGradient;
    }
    fixedWalls
    {
        type            zeroGradient;
    }
    frontAndBack
    {
        type            empty;
    }
}


// ************************************************************************* //
