/*--------------------------------*- C++ -*----------------------------------*\
  =========                 |
  \\      /  F ield         | OpenFOAM: The Open Source CFD Toolbox
   \\    /   O peration     | Website:  https://openfoam.org
    \\  /    A nd           | Version:  13
     \\/     M anipulation  |
\*---------------------------------------------------------------------------*/
FoamFile
{
    format      ascii;
    class       surfaceScalarField;
    location    "42";
    object      phi;
}
// * * * * * * * * * * * * * * * * * * * * * * * * * * * * * * * * * * * * * //

dimensions      [0 3 -1 0 0 0 0];

internalField   nonuniform List<scalar> 
760
(
-1.321891944e-05
1.321848958e-05
-7.201781381e-05
5.879889021e-05
-0.0001620727535
9.005491346e-05
-0.0002652229437
0.000103150193
-0.0003682426099
0.0001030197505
-0.0004615044015
9.326188188e-05
-0.0005377500142
7.624559701e-05
-0.00059124214
5.349198162e-05
-0.0006175093977
2.626708047e-05
-0.0006135894449
-3.920035077e-06
-0.0005784600826
-3.51293074e-05
-0.0005138428143
-6.461714556e-05
-0.0004246594889
-8.918323108e-05
-0.0003192817551
-0.0001053777255
-0.0002092253997
-0.0001100564184
-0.0001081385925
-0.00010108688
-2.992498618e-05
-7.821364335e-05
1.414937146e-05
-4.407435568e-05
2.190957082e-05
-7.760217045e-06
2.190955815e-05
-6.87034055e-05
8.192189328e-05
-0.000245775616
0.0002358711579
-0.0004934732678
0.0003377525842
-0.0007722779843
0.0003819547952
-0.001050409625
0.0003811512368
-0.001303006428
0.00034585866
-0.001510604483
0.0002838438296
-0.001657872435
0.0002007602087
-0.001733199929
0.0001015947627
-0.001729305697
-7.81427412e-06
-0.001643831405
-0.0001206037271
-0.001481414043
-0.0002270346489
-0.00125438187
-0.0003162154673
-0.0009832948857
-0.0003764646838
-0.000696141611
-0.0003972096311
-0.0004257314389
-0.0003714970112
-0.000204993234
-0.0002989518431
-5.981228251e-05
-0.0001892553269
-4.921408033e-07
-6.708033116e-05
2.141737308e-05
-0.0001229342289
0.0002048560962
-0.0004149724328
0.000527909372
-0.0008086682969
0.0007314485593
-0.001247165281
0.0008204518622
-0.001684661751
0.0008186476729
-0.002084430616
0.0007456273745
-0.002416966147
0.0006163791928
-0.002658576819
0.0004423708074
-0.002790992144
0.0002340101354
-0.002802414006
3.607741728e-06
-0.002687902502
-0.0002351151549
-0.002452961919
-0.0004619752186
-0.002114172001
-0.0006550054288
-0.001700374469
-0.0007902622664
-0.001251822498
-0.0008457616197
-0.000816744754
-0.0008065747331
-0.0004446233059
-0.0006710732437
-0.000176232051
-0.0004576465372
-3.221219977e-05
-0.0002111001919
-1.079484325e-05
-0.0001720783427
0.0003769344319
-0.0005725608278
0.0009283917339
-0.001105967903
0.00126485563
-0.001698036588
0.001412520645
-0.00229059723
0.001411208443
-0.002837254638
0.001292284848
-0.003300217594
0.001079342113
-0.003648292447
0.0007904455721
-0.003856339378
0.0004420570108
-0.003905816599
5.308493254e-05
-0.003787748114
-0.0003531835896
-0.003504025206
-0.0007456980759
-0.003071272777
-0.001087757842
-0.002522631099
-0.001338903956
-0.001907996364
-0.001460396352
-0.001290905667
-0.001423665389
-0.0007407542522
-0.001221224597
-0.0003202708746
-0.0008781298756
-7.110221502e-05
-0.0004602688612
-8.189706704e-05
-0.0002170220778
0.0005939565802
-0.0007188332759
0.001430202867
-0.001385655859
0.00193167811
-0.0021271237
0.002153988429
-0.002874374349
0.002158459111
-0.00357319559
0.00199110616
-0.004178979631
0.001685126212
-0.004653584739
0.001265050686
-0.004964199058
0.0007526712946
-0.00508401782
0.0001729036593
-0.004995023711
-0.0004421777074
-0.004691189381
-0.001049532398
-0.004183518491
-0.001595428726
-0.003504390107
-0.002018032342
-0.002710450368
-0.002254336088
-0.001881578084
-0.00225253765
-0.001113233244
-0.001989569403
-0.0005008210699
-0.001490542037
-0.0001191421238
-0.0008419478154
-0.0002010391952
-0.0002573667789
0.0008513234
-0.0008513398751
0.002024176051
-0.001642296847
0.002722635074
-0.002526557535
0.003038249061
-0.003426901468
0.003058802987
-0.004283389113
0.002847593786
-0.005046215151
0.002447952278
-0.005671018532
0.001889854113
-0.006116751877
0.001198404673
-0.006345982339
0.0004021341336
-0.006327843754
-0.0004603163013
-0.006042476609
-0.001334899565
-0.005488324058
-0.002149581302
-0.004689982277
-0.002816374144
-0.003705727816
-0.003238590564
-0.002631183522
-0.003327081947
-0.001594227017
-0.003026525906
-0.0007363872467
-0.002348381818
-0.0001821206532
-0.001396214415
-0.0003831598495
-0.0002911842011
0.001142507534
-0.000964125342
0.002697117266
-0.001864163884
0.003622673675
-0.002878145824
0.004052231026
-0.003923464846
0.004104121986
-0.004937001918
0.003861130812
-0.005865889203
0.003376839532
-0.006661002451
0.002684967368
-0.007273440152
0.001810842408
-0.007653973781
0.0007826678034
-0.007755806192
-0.0003584838712
-0.007539788955
-0.001550916816
-0.006984027981
-0.002705342311
-0.006095814755
-0.003704587409
-0.004925704516
-0.004408700832
-0.003579480106
-0.004673306373
-0.00222038835
-0.004385617673
-0.001050845719
-0.003517924463
-0.0002684677924
-0.002178592345
-0.0006516276412
-0.00031596562
0.001458473099
-0.001048737685
0.003429889301
-0.002034531869
0.004608467886
-0.003154903974
0.005172603176
-0.004325133356
0.005274351393
-0.005481849571
0.005017847016
-0.006571932486
0.004466922414
-0.007544121295
0.003657156155
-0.008343811531
0.00261053265
-0.008911130692
0.001349986996
-0.009182806516
-8.680801402e-05
-0.009097013086
-0.001636710235
-0.008604584602
-0.003197770811
-0.007684199393
-0.004624972647
-0.00636406875
-0.0057288315
-0.004746043655
-0.006291331481
-0.003022882403
-0.00610877893
-0.001469581377
-0.005071225495
-0.0003882445551
-0.003259929165
-0.001039872196
-0.0003291955939
0.001787668718
-0.001096443077
0.004197136725
-0.002135079745
0.005647104535
-0.003325368483
0.006362891927
-0.00458365171
0.006532634642
-0.005849373474
0.006283568786
-0.007072575127
0.005690124054
-0.008203824969
0.004788405977
-0.009187258552
0.003593966228
-0.009956893864
0.002119622322
-0.01043606967
0.0003923678179
-0.01054224996
-0.001530529914
-0.01019503523
-0.003544985531
-0.009334089432
-0.005485918446
-0.007946629258
-0.007116291679
-0.006105926961
-0.00813203378
-0.004012930361
-0.008201775526
-0.002014593035
-0.007069562816
-0.0005528022302
-0.004721719966
-0.001592674425
-0.0003297928539
0.002117461614
-0.00110170186
0.004969045718
-0.002151423399
0.006696826057
-0.00336107797
0.007572546493
-0.004650845724
0.007822402395
-0.005965957025
0.007598680083
-0.007263379571
0.006987546587
-0.008500566141
0.006025592534
-0.009627011992
0.004720412074
-0.01057860293
0.003071213269
-0.01127459548
0.001088360385
-0.01161814898
-0.00118697639
-0.01150162928
-0.003661505204
-0.01082052636
-0.006167021347
-0.009503001567
-0.008433816456
-0.007560608988
-0.01007442635
-0.00516087339
-0.01060151112
-0.002696115618
-0.009534320579
-0.0007741503481
-0.006643685231
-0.002366824772
-0.0003199349418
0.002437396553
-0.001066686724
0.005715797523
-0.002080423941
0.007710563281
-0.003246814658
0.008738937214
-0.004492308051
0.009067895784
-0.005770873452
0.00887724547
-0.007050316282
0.008266989397
-0.008300542316
0.007275818552
-0.009484302246
0.005904171998
-0.01054996275
0.004136873777
-0.01142562086
0.0019640185
-0.01201417235
-0.0005984248849
-0.01219379473
-0.003481882803
-0.01182096895
-0.006539847102
-0.01075537873
-0.009499406656
-0.008913750706
-0.01191605436
-0.006370857875
-0.01314440394
-0.003498965209
-0.01240621324
-0.001063151392
-0.009079499043
-0.00342997616
-0.0003074094395
0.00274480596
-0.001006587473
0.006414975568
-0.001938354801
0.008642330628
-0.002991898956
0.009792481389
-0.004102813434
0.01017881027
-0.005237448954
0.01001188099
-0.006378627992
0.00940816842
-0.007514083784
0.008411274326
-0.008627331745
0.007017419946
-0.009689844146
0.005199386172
-0.01065314232
0.002927316671
-0.01143756778
0.0001860005771
-0.01192945614
-0.002989994439
-0.01196499044
-0.006504312801
-0.01134373897
-0.01012065812
-0.009868967808
-0.01339082551
-0.007460114262
-0.01555325748
-0.004363834575
-0.01550249292
-0.001425535639
-0.01201779797
-0.004855511796
-0.0003089282671
0.003053734206
-0.0009555674367
0.007061614726
-0.001768490043
0.00945525325
-0.002639390556
0.01066338193
-0.003518262036
0.01105768178
-0.004389722612
0.01088334157
-0.005256719212
0.01027516502
-0.006129514534
0.00928406964
-0.007017707116
0.007905612515
-0.007923326662
0.006105005704
-0.008832213247
0.003836203242
-0.009704214533
0.001058001851
-0.01045072635
-0.002243482626
-0.01092412005
-0.006030919106
-0.01089502848
-0.01014974969
-0.01006488814
-0.01422096586
-0.008157305528
-0.01746084009
-0.005167631655
-0.01849216679
-0.001854348999
-0.01533108063
-0.006709860793
-0.00035527006
0.003409004264
-0.000973333193
0.00767967784
-0.001646057465
0.01012797753
-0.002268710427
0.01128603491
-0.002816840061
0.01160581143
-0.003303693669
0.0113701952
-0.003759410075
0.01073088144
-0.004220924759
0.00974558433
-0.004726146934
0.008410834685
-0.005309762711
0.006688621468
-0.005996656648
0.004523097161
-0.006791798282
0.001853143469
-0.007660585596
-0.001374695326
-0.008503029389
-0.005188475322
-0.009113178192
-0.009539600893
-0.009142508108
-0.01419163594
-0.008128400689
-0.01847494751
-0.005711156586
-0.02090941089
-0.002318284787
-0.01872395242
-0.00902814558
-0.0005003770314
0.003909381297
-0.001151296514
0.008330597309
-0.001674821074
0.0106515021
-0.001981640381
0.01159285423
-0.002095672506
0.01171984356
-0.002075735703
0.01135025841
-0.001988477215
0.01064362296
-0.001901151323
0.009658258451
-0.001878927131
0.008388610501
-0.001985971113
0.00679566545
-0.002282466947
0.00481959299
-0.002818755725
0.002389432239
-0.003622152178
-0.0005712988806
-0.004668842859
-0.004141784646
-0.005834634929
-0.008373808826
-0.006807663706
-0.01321860717
-0.007016668822
-0.01826594239
-0.005716401028
-0.02220967868
-0.002739567088
-0.02170078636
-0.01176771267
-0.0008308853796
0.004740266672
-0.001604832891
0.009104544812
-0.001950979423
0.01099764864
-0.001839382858
0.01148125766
-0.001385434904
0.0112658956
-0.0007181317526
0.01068295525
4.821324199e-05
0.009877277976
0.0008164047298
0.008890066977
0.001495360688
0.007709654557
0.001998424234
0.006292601916
0.002238517622
0.004579499609
0.002128354996
0.00249959487
0.001583160152
-2.610403407e-05
0.0005450315925
-0.003103656084
-0.0009843145596
-0.006844462672
-0.00282840176
-0.01137451996
-0.004459125968
-0.01663521818
-0.004810489522
-0.02185831513
-0.002944290915
-0.02356698497
-0.01471200358
-0.001465682534
0.006205949194
-0.002379876677
0.01001873895
-0.002373444933
0.01099121688
-0.00160354195
0.01071135467
-0.0003496263864
0.01001198003
0.001163642606
0.009169686261
0.002771842108
0.008269078486
0.004349534238
0.007312374863
0.00579162386
0.006267564953
0.006998015099
0.005086210692
0.007865493499
0.003712021219
0.008282285535
0.002082802842
0.008123822461
0.0001323590435
0.007264496973
-0.002244330592
0.005585213237
-0.005165178932
0.003073873169
-0.008863179893
7.897201033e-05
-0.01364031702
-0.00244574733
-0.01933359579
-0.002601078006
-0.02341165429
-0.01731308159
-0.002365504008
0.008571453196
-0.002963808716
0.01061704367
-0.001922814077
0.009950222214
8.111535561e-05
0.008707425237
0.002534887232
0.007558208152
0.005140255897
0.006564317599
0.007719753814
0.005689580578
0.0101546218
0.004877506888
0.0123495738
0.004072612956
0.01421200261
0.003223781893
0.0156405405
0.002283483324
0.01651758925
0.001205754094
0.01669709991
-4.715161692e-05
0.01602712646
-0.001574357135
0.01430509022
-0.003443142691
0.01133283088
-0.005890920556
0.007055613794
-0.00936309993
0.002201623678
-0.01447960567
-0.001027320537
-0.02018271007
-0.01834040212
-0.002150342907
0.01072179611
-7.199466722e-05
0.008538695498
0.003741898409
0.006136329102
0.007719772826
0.004729550825
0.01156187103
0.003716109947
0.01514101061
0.002985178025
0.01839885625
0.002431734925
0.02130155565
0.001974807482
0.02381243385
0.00156173474
0.02587973499
0.001156480746
0.02743056916
0.0007326491502
0.02836472834
0.0002715949072
0.02857561759
-0.0002580408671
0.02788766535
-0.0008864048948
0.02609934136
-0.001654818697
0.02290826571
-0.002699844908
0.01790696687
-0.004361801085
0.01076690817
-0.007339546961
0.002912180376
-0.01232798228
-0.01542822175
0.01072179611
0.01926049164
0.02539682075
0.03012637157
0.03384248151
0.03682765952
0.03925939444
0.04123420191
0.04279593664
0.04395241738
0.04468506653
0.04495666143
0.04469862056
0.04381221567
0.04215739697
0.03945755207
0.03509575099
0.02775620403
0.01542822175
)
;

boundaryField
{
    movingWall
    {
        type            calculated;
        value           uniform 0;
    }
    fixedWalls
    {
        type            calculated;
        value           uniform 0;
    }
    frontAndBack
    {
        type            empty;
    }
}


// ************************************************************************* //
