/*--------------------------------*- C++ -*----------------------------------*\
  =========                 |
  \\      /  F ield         | OpenFOAM: The Open Source CFD Toolbox
   \\    /   O peration     | Website:  https://openfoam.org
    \\  /    A nd           | Version:  13
     \\/     M anipulation  |
\*---------------------------------------------------------------------------*/
FoamFile
{
    format      ascii;
    class       surfaceScalarField;
    location    "42";
    object      phi_0;
}
// * * * * * * * * * * * * * * * * * * * * * * * * * * * * * * * * * * * * * //

dimensions      [0 3 -1 0 0 0 0];

internalField   nonuniform List<scalar> 
760
(
4.618477203e-06
-4.618257207e-06
-3.886720938e-05
4.348586395e-05
-0.0001316326838
9.276535151e-05
-0.0002577181626
0.0001260855035
-0.0004011752291
0.000143456676
-0.00054859661
0.0001474220667
-0.0006880892
0.0001394924024
-0.0008078901687
0.0001198009399
-0.0008958089383
8.791933854e-05
-0.0009399309296
4.412210418e-05
-0.0009305404081
-9.391243167e-06
-0.0008628982048
-6.764210081e-05
-0.0007400644028
-0.0001228335709
-0.0005747894005
-0.0001652756039
-0.0003893209362
-0.0001854685068
-0.0002123347059
-0.0001769854304
-7.298245953e-05
-0.000139351964
6.996283777e-06
-7.997923909e-05
2.270875667e-05
-1.571279238e-05
2.27092122e-05
-4.73444213e-05
4.272599389e-05
-0.0002099745772
0.0002061159842
-0.0004744334023
0.0003572231685
-0.0008080573634
0.0004597105354
-0.001176485325
0.0005118829231
-0.001548090576
0.0005190280619
-0.001893305669
0.0004847088072
-0.002183164323
0.0004096602095
-0.002389210515
0.0002939652186
-0.002485549847
0.0001404615914
-0.002452909031
-4.203360907e-05
-0.002283771942
-0.0002367803085
-0.001987404703
-0.0004191992569
-0.001592831898
-0.000559846755
-0.001148052503
-0.0006302481778
-0.00071395785
-0.000611080856
-0.000352625669
-0.0005006833175
-0.0001114548111
-0.0003211486549
-5.831498411e-06
-0.0001213355466
1.687868117e-05
-0.0001121197606
0.0001548458699
-0.0004064402503
0.0005004371647
-0.0008367125661
0.0007874946354
-0.001353713386
0.0009767111073
-0.001910366796
0.001068536141
-0.002463056573
0.001071719062
-0.002970373519
0.0009920267074
-0.003391908115
0.0008311952136
-0.003688813952
0.000590869556
-0.003826706798
0.0002783542809
-0.003780609167
-8.813071098e-05
-0.003540984521
-0.0004764045995
-0.003119600446
-0.0008405832129
-0.002553451799
-0.00112599547
-0.001904668087
-0.001279031676
-0.00125419642
-0.001261551672
-0.0006879298387
-0.001066948941
-0.0002764682221
-0.00073261061
-5.335603622e-05
-0.0003444459965
-3.647673699e-05
-0.0001737843301
0.0003286298887
-0.0005952694238
0.000921920728
-0.001182086262
0.001374310359
-0.001866038564
0.001660663209
-0.002588903841
0.001791401709
-0.003298850149
0.001781665369
-0.00394717594
0.001640352322
-0.004486514086
0.001370534605
-0.004871355751
0.0009757110446
-0.005061001823
0.000468000463
-0.005024560801
-0.0001245711076
-0.004747284519
-0.0007536790422
-0.004237415314
-0.00135045112
-0.00353211041
-0.001831300259
-0.002700180361
-0.00211096082
-0.001838279782
-0.002123450334
-0.001057217712
-0.00184801013
-0.0004579839685
-0.001331843885
-0.0001035977718
-0.000698830456
-0.0001400745707
-0.0002286776203
0.000557307578
-0.0007650969636
0.001458340687
-0.001493665723
0.002102878033
-0.002327789151
0.002494785827
-0.003199587189
0.002663199812
-0.004051811276
0.002633890608
-0.004831970016
0.002420511612
-0.005489120651
0.002027685688
-0.005973483148
0.001460072841
-0.006238595441
0.0007331146283
-0.006245698045
-0.0001174662465
-0.0059700288
-0.001029346529
-0.005409096948
-0.00191138232
-0.004591864401
-0.002648532713
-0.003586683664
-0.003116140085
-0.002503157573
-0.003206974781
-0.001481407502
-0.002869760642
-0.0006643892514
-0.002148860699
-0.0001583605801
-0.001204859778
-0.0002984349574
-0.0002749428438
0.0008322495593
-0.0009092605234
0.002092656954
-0.001759587007
0.002953203034
-0.00272372621
0.003458925222
-0.003726383893
0.003665857239
-0.004707529773
0.003615036894
-0.005613887258
0.00332687005
-0.006393794564
0.0028075948
-0.006995177946
0.002061456917
-0.007366135759
0.00110407604
-0.007458086469
-2.551216975e-05
-0.007231510992
-0.001255921115
-0.006665737104
-0.002477157031
-0.005772012211
-0.003542257974
-0.0046087173
-0.004279434145
-0.003292658379
-0.004523033873
-0.001996031767
-0.004166389496
-0.0009173097657
-0.003227581924
-0.0002251761994
-0.001896996982
-0.0005236108516
-0.0003106777225
0.001142927196
-0.001021514391
0.002803492387
-0.001968165346
0.003899853027
-0.003036716365
0.004527476991
-0.004147155017
0.00477629671
-0.005239278879
0.004707161052
-0.006261858649
0.004349450719
-0.007165362559
0.00371110141
-0.007897814315
0.002793910355
-0.008403238323
0.001609503034
-0.008622688091
0.0001939390143
-0.008499183646
-0.001379427687
-0.007987397349
-0.00298894639
-0.007070647661
-0.004459008451
-0.005784100747
-0.00556598126
-0.004239373887
-0.006067763088
-0.002636721951
-0.005769045307
-0.00124220996
-0.004622094665
-0.0003134839522
-0.002825724335
-0.0008370947459
-0.0003339780099
0.0014769051
-0.001095784907
0.003565299026
-0.00210753366
0.004911601095
-0.003247687624
0.005667630326
-0.004434186909
0.005962797016
-0.005609104914
0.005882079217
-0.006726010407
0.00546635672
-0.007740641818
0.004725734882
-0.008604488842
0.003657758578
-0.009260730614
0.002265745578
-0.009642705103
0.0005759125704
-0.009676305606
-0.001345829938
-0.009288526277
-0.003376728129
-0.008425599621
-0.005321935231
-0.007083145048
-0.006908436438
-0.00534647021
-0.007804439879
-0.003427383671
-0.007688133649
-0.001663372333
-0.006386107313
-0.0004336244807
-0.004055469576
-0.001270719488
-0.0003435985415
0.001820503113
-0.00112764464
0.004349345214
-0.002167849295
0.005951805608
-0.003338652356
0.00683843261
-0.004558229704
0.007182375283
-0.005773080123
0.007096929059
-0.006944208331
0.006637484775
-0.00803608747
0.005817614802
-0.009008153605
0.004629825767
-0.00980825425
0.003065846036
-0.01036807846
0.0011357347
-0.01060184553
-0.001112063703
-0.01041108977
-0.003567482715
-0.009700129018
-0.006032894962
-0.008408924242
-0.008199641878
-0.006567734313
-0.009645631076
-0.004366405831
-0.009889462169
-0.00219876818
-0.008553746179
-0.0005964477793
-0.005657789125
-0.001867167459
-0.0003400551174
0.002160557904
-0.001116968478
0.005126258252
-0.002145401618
0.006980237909
-0.003298286991
0.007991316523
-0.004495859324
0.008379947041
-0.005690970823
0.008292038385
-0.006854579594
0.007801093072
-0.007963488819
0.006926524276
-0.008990281494
0.00565662018
-0.009894721331
0.003970287873
-0.01061617103
0.001857184163
-0.01106754978
-0.0006606846839
-0.01113446998
-0.003500561359
-0.01068237822
-0.006484988219
-0.009585535124
-0.009296488165
-0.007788656141
-0.01144251266
-0.005409415382
-0.01226870442
-0.002852219166
-0.01111094295
-0.0008127016209
-0.00769731007
-0.00267986894
-0.0003271079939
0.002487665719
-0.001071461809
0.005870611295
-0.002047972716
0.007956747029
-0.003129103227
0.009072444158
-0.004238938854
0.009489780583
-0.005338896737
0.009391993759
-0.006412478397
0.008874675492
-0.007452247576
0.007966294506
-0.00844898859
0.006653362102
-0.009381943993
0.004903245079
-0.01020913176
0.002684373542
-0.01085575205
-1.406342624e-05
-0.0112086346
-0.003147679714
-0.01110764469
-0.006585982864
-0.01036439012
-0.01003974671
-0.008816338497
-0.01299056628
-0.006450948519
-0.01463409654
-0.003601040496
-0.01396084927
-0.001091338882
-0.01020701085
-0.003771206617
-0.0003136795563
0.002801344628
-0.001010802542
0.006567732177
-0.001900556382
0.008846498592
-0.002854525644
0.01002640978
-0.00380360738
0.01043885962
-0.004721384705
0.01030976936
-0.005607093065
0.009760385852
-0.006472104079
0.008831308044
-0.007329251052
0.00751051014
-0.008183151215
0.005757144715
-0.009019486636
0.003520708877
-0.009793123609
0.0007595739326
-0.01040810774
-0.002532696598
-0.01070611604
-0.006287975716
-0.01045648985
-0.01028937134
-0.009388932764
-0.01405812024
-0.007312715925
-0.01671031365
-0.004379658261
-0.01689390649
-0.001435544287
-0.01315112253
-0.005206752045
-0.0003165755435
0.003117919561
-0.0009713558719
0.007222509652
-0.001750296957
0.009625438124
-0.002523400636
0.01079951108
-0.003234860281
0.01115031719
-0.003877159403
0.01095206724
-0.004469896354
0.01035312405
-0.00504593876
0.009407351571
-0.005642003537
0.008106575847
-0.006290607159
0.006405749255
-0.007010791578
0.004240895098
-0.007795122779
0.001543905884
-0.008589029169
-0.0017387921
-0.009264188499
-0.005612816262
-0.00958711509
-0.00996644486
-0.009210084225
-0.0144351515
-0.007748490558
-0.01817190973
-0.005063745974
-0.01957865242
-0.001834719277
-0.01638015143
-0.007041473416
-0.0003649426911
0.003482861909
-0.0010114904
0.007869054657
-0.001668662434
0.01028260854
-0.002207854943
0.01133870205
-0.002600693736
0.01154315574
-0.002870559927
0.01122193293
-0.003064218789
0.01054678328
-0.003238450748
0.009581583566
-0.00345343207
0.008321556153
-0.003767956902
0.006720273957
-0.004233542723
0.004706482771
-0.004884484291
0.002194849356
-0.005719637561
-0.0009036384853
-0.006670544375
-0.004661905985
-0.007550860817
-0.00908612914
-0.007997749454
-0.0139882656
-0.007467773003
-0.0187018877
-0.005461199029
-0.02158522426
-0.002250333591
-0.01959101626
-0.009291805602
-0.0005070382372
0.003989899867
-0.001215219471
0.008577234163
-0.001744065148
0.01081145227
-0.001983705371
0.01157833935
-0.001962157372
0.01152160833
-0.001752940764
0.01101271723
-0.001438926871
0.01023276935
-0.001102771258
0.009245428011
-0.0008256910091
0.008044478285
-0.0006877582347
0.006582345231
-0.0007669857182
0.004785713435
-0.001135059172
0.002562922983
-0.001845881489
-0.0001928181135
-0.002908653117
-0.003599133528
-0.004231086866
-0.007763695694
-0.005518816757
-0.01270053549
-0.006162699875
-0.01805800322
-0.005308567026
-0.02243935904
-0.002593192197
-0.02230639162
-0.01188500299
-0.0008124471573
0.004802346739
-0.001678853555
0.009443640117
-0.002036457252
0.01116905632
-0.001854939537
0.01139681816
-0.001275713345
0.01094238035
-0.0004495316536
0.01018653671
0.0004958106766
0.0092874286
0.00145199028
0.008289248367
0.002321606752
0.007174861737
0.003010805385
0.005893147288
0.003424202539
0.004372316075
0.003462841913
0.002524284218
0.003026950422
0.0002430775615
0.002030697314
-0.002602878196
0.0004468507332
-0.006179847998
-0.001579055474
-0.01067463157
-0.003513889564
-0.01612317375
-0.004262095141
-0.02169115912
-0.002689841656
-0.02387864064
-0.01457484516
-0.001348666635
0.006151013279
-0.002417937276
0.01051291003
-0.002383218653
0.01113433993
-0.001491844847
0.01050544503
-0.000100123428
0.009550657976
0.001540633723
0.00854577985
0.003261084206
0.007566978299
0.004937718125
0.006612614429
0.006469199721
0.005643381226
0.007760294696
0.004602054407
0.008710819776
0.003421791726
0.009208396373
0.002026708916
0.009123888509
0.0003275890828
0.008313719538
-0.001792714358
0.006638841087
-0.004504967216
0.004050205772
-0.008085988883
0.0008436440334
-0.01291660685
-0.001884300221
-0.01896321419
-0.002255871267
-0.02350707324
-0.01683071708
-0.002135257813
0.008286271578
-0.002921028165
0.01129867826
-0.001685199371
0.009898514013
0.0005378107795
0.008282438035
0.003119512618
0.006968957594
0.005769134846
0.005896156815
0.008333391797
0.005002719467
0.01071544432
0.004230560369
0.01284077138
0.003518055031
0.01463608555
0.002806742279
0.01601565201
0.002042223958
0.01687263768
0.001169722816
0.01707018952
0.0001300426048
0.01643675149
-0.001159280403
0.01475708576
-0.002825302358
0.01179692331
-0.005125826811
0.007465243262
-0.00858493053
0.002448979513
-0.01394694824
-0.000883140973
-0.02017495243
-0.01771385868
-0.002487920644
0.01077419347
-1.262113414e-05
0.008823377163
0.004177571627
0.005708319928
0.008327812483
0.004132198475
0.01212290734
0.003173864113
0.01553155763
0.002487506668
0.01855433529
0.001979941393
0.02119651562
0.001588379331
0.02345441817
0.001260152921
0.02530505495
0.0009561076159
0.02670130682
0.0006459745914
0.02756582301
0.0003052088819
0.02778598036
-9.011264745e-05
0.02720234485
-0.0005756435852
0.02557797798
-0.001200934582
0.02255145685
-0.002099304857
0.01762097226
-0.003654446207
0.01040257094
-0.006728543773
0.002475749201
-0.01224813418
-0.01523810667
0.01077419482
0.01959757376
0.02530589339
0.02943809092
0.03261195485
0.03509946122
0.03707940157
0.03866778096
0.03992793504
0.04088404185
0.04153001521
0.04183522561
0.04174511175
0.04116946954
0.03996853741
0.0378692338
0.03421478724
0.02748624198
0.01523810675
)
;

boundaryField
{
    movingWall
    {
        type            calculated;
        value           uniform 0;
    }
    fixedWalls
    {
        type            calculated;
        value           uniform 0;
    }
    frontAndBack
    {
        type            empty;
    }
}


// ************************************************************************* //
