/*--------------------------------*- C++ -*----------------------------------*\
  =========                 |
  \\      /  F ield         | OpenFOAM: The Open Source CFD Toolbox
   \\    /   O peration     | Website:  https://openfoam.org
    \\  /    A nd           | Version:  13
     \\/     M anipulation  |
\*---------------------------------------------------------------------------*/
FoamFile
{
    format      ascii;
    class       surfaceScalarField;
    location    "42";
    object      phi_0;
}
// * * * * * * * * * * * * * * * * * * * * * * * * * * * * * * * * * * * * * //

dimensions      [0 3 -1 0 0 0 0];

internalField   nonuniform List<scalar> 
760
(
-1.321891804e-05
1.321848998e-05
-7.201781742e-05
5.879889715e-05
-0.0001620727524
9.005492128e-05
-0.0002652229286
0.0001031501806
-0.0003682425997
0.000103019716
-0.0004615044137
9.326185649e-05
-0.0005377500417
7.624561446e-05
-0.0005912421576
5.349204178e-05
-0.0006175093881
2.626714668e-05
-0.000613589417
-3.920004306e-06
-0.0005784600615
-3.51293233e-05
-0.0005138428142
-6.461718668e-05
-0.0004246595061
-8.918326453e-05
-0.0003192817738
-0.0001053777312
-0.0002092254075
-0.0001100563994
-0.0001081385908
-0.0001010868539
-2.992498554e-05
-7.821362457e-05
1.414936433e-05
-4.407434636e-05
2.190956375e-05
-7.760205446e-06
2.190956263e-05
-6.870339804e-05
8.192188744e-05
-0.0002457756199
0.0002358711512
-0.0004934732882
0.000337752598
-0.000772277991
0.0003819548239
-0.001050409602
0.0003811512509
-0.001303006391
0.000345858637
-0.001510604463
0.0002838437782
-0.001657872448
0.0002007601626
-0.001733199961
0.0001015947503
-0.001729305723
-7.814252213e-06
-0.001643831412
-0.0001206036974
-0.001481414033
-0.0002270346315
-0.001254381856
-0.0003162154692
-0.0009832948777
-0.000376464695
-0.0006961416114
-0.0003972096359
-0.000425731445
-0.0003714970025
-0.0002049932436
-0.0002989518254
-5.98122917e-05
-0.0001892553093
-4.921545443e-07
-6.708032093e-05
2.141738371e-05
-0.0001229342212
0.0002048560953
-0.0004149724153
0.000527909351
-0.0008086683014
0.0007314485405
-0.001247165304
0.0008204518678
-0.001684661771
0.0008186477031
-0.002084430612
0.0007456274076
-0.002416966121
0.0006163792048
-0.002658576792
0.0004423707928
-0.002790992135
0.0002340101095
-0.002802414023
3.607722725e-06
-0.002687902524
-0.000235115156
-0.002452961933
-0.0004619752085
-0.002114171998
-0.0006550054186
-0.001700374454
-0.0007902622618
-0.001251822484
-0.0008457616184
-0.00081674475
-0.0008065747298
-0.0004446233156
-0.0006710732377
-0.0001762320689
-0.0004576465311
-3.221221169e-05
-0.0002111001851
-1.079483389e-05
-0.0001720783546
0.0003769344476
-0.000572560808
0.0009283917408
-0.001105967881
0.001264855611
-0.001698036584
0.001412520618
-0.002290597246
0.001411208428
-0.002837254658
0.001292284855
-0.003300217599
0.001079342133
-0.003648292434
0.0007904455879
-0.003856339363
0.0004420570112
-0.003905816592
5.308492203e-05
-0.003787748121
-0.0003531836025
-0.003504025219
-0.0007456980841
-0.003071272781
-0.001087757845
-0.002522631087
-0.001338903957
-0.001907996346
-0.001460396357
-0.00129090566
-0.001423665398
-0.0007407542622
-0.001221224607
-0.0003202708922
-0.0008781298825
-7.110222487e-05
-0.000460268861
-8.189706262e-05
-0.0002170220995
0.0005939565834
-0.0007188332827
0.001430202892
-0.001385655847
0.001931678126
-0.002127123682
0.002153988424
-0.002874374339
0.002158459092
-0.003573195595
0.001991106142
-0.00417897964
0.001685126208
-0.004653584744
0.001265050696
-0.004964199055
0.0007526713092
-0.005084017817
0.0001729036679
-0.004995023714
-0.0004421777088
-0.004691189387
-0.001049532406
-0.004183518492
-0.001595428735
-0.003504390098
-0.002018032351
-0.002710450355
-0.002254336099
-0.001881578078
-0.002252537665
-0.00111323325
-0.001989569419
-0.0005008210802
-0.001490542048
-0.0001191421297
-0.000841947819
-0.0002010391947
-0.0002573667791
0.0008513233818
-0.0008513398916
0.002024176051
-0.001642296857
0.002722635088
-0.002526557533
0.003038249076
-0.003426901457
0.003058802988
-0.0042833891
0.002847593775
-0.005046215144
0.002447952263
-0.005671018532
0.001889854106
-0.006116751882
0.001198404677
-0.006345982347
0.0004021341429
-0.006327843764
-0.0004603162929
-0.006042476616
-0.001334899561
-0.005488324059
-0.002149581303
-0.004689982271
-0.002816374149
-0.003705727806
-0.003238590572
-0.002631183516
-0.003327081956
-0.001594227018
-0.003026525916
-0.0007363872487
-0.002348381824
-0.0001821206547
-0.001396214417
-0.0003831598496
-0.0002911841816
0.001142507527
-0.000964125342
0.002697117248
-0.001864163894
0.00362267367
-0.002878145836
0.004052231031
-0.00392346485
0.004104121994
-0.00493700191
0.003861130814
-0.005865889188
0.003376839526
-0.006661002439
0.002684967358
-0.007273440149
0.001810842402
-0.007653973791
0.0007826678047
-0.007755806209
-0.0003584838628
-0.007539788969
-0.001550916804
-0.006984027986
-0.0027053423
-0.006095814751
-0.003704587401
-0.004925704508
-0.004408700828
-0.003579480101
-0.004673306371
-0.002220388348
-0.004385617672
-0.001050845716
-0.003517924461
-0.0002684677913
-0.002178592342
-0.0006516276396
-0.0003159656097
0.00145847311
-0.001048737673
0.003429889295
-0.002034531867
0.004608467876
-0.003154903983
0.00517260317
-0.004325133366
0.005274351393
-0.005481849573
0.005017847018
-0.006571932475
0.004466922414
-0.007544121279
0.00365715615
-0.00834381152
0.002610532644
-0.008911130694
0.001349986993
-0.009182806529
-8.680801061e-05
-0.009097013101
-0.001636710224
-0.008604584611
-0.003197770795
-0.007684199393
-0.00462497263
-0.006364068745
-0.005728831486
-0.00474604365
-0.00629133147
-0.0030228824
-0.006108778922
-0.001469581374
-0.005071225487
-0.0003882445537
-0.00325992916
-0.001039872192
-0.0003291956013
0.001787668726
-0.00109644307
0.004197136733
-0.002135079738
0.005647104535
-0.003325368485
0.006362891923
-0.004583651718
0.006532634638
-0.005849373479
0.006283568783
-0.007072575121
0.005690124052
-0.008203824955
0.004788405975
-0.009187258538
0.003593966223
-0.009956893857
0.002119622317
-0.01043606967
0.0003923678163
-0.01054224997
-0.001530529909
-0.01019503524
-0.00354498552
-0.009334089436
-0.005485918432
-0.007946629257
-0.007116291664
-0.006105926958
-0.008132033768
-0.004012930359
-0.008201775517
-0.002014593034
-0.007069562808
-0.0005528022299
-0.00472171996
-0.001592674421
-0.0003297928624
0.002117461611
-0.001101701862
0.004969045725
-0.002151423397
0.006696826064
-0.003361077972
0.007572546497
-0.004650845729
0.007822402395
-0.005965957029
0.007598680082
-0.007263379567
0.006987546585
-0.008500566129
0.006025592531
-0.009627011979
0.00472041207
-0.01057860292
0.003071213263
-0.01127459548
0.001088360379
-0.01161814898
-0.001186976394
-0.01150162928
-0.003661505203
-0.01082052636
-0.006167021343
-0.00950300157
-0.008433816449
-0.007560608989
-0.01007442634
-0.005160873391
-0.01060151111
-0.002696115619
-0.009534320574
-0.0007741503487
-0.006643685227
-0.002366824769
-0.0003199349391
0.002437396546
-0.001066686725
0.005715797522
-0.002080423943
0.007710563286
-0.003246814663
0.008738937221
-0.004492308058
0.009067895791
-0.005770873457
0.008877245475
-0.00705031628
0.0082669894
-0.008300542308
0.007275818551
-0.009484302235
0.005904171993
-0.01054996274
0.004136873769
-0.01142562085
0.00196401849
-0.01201417234
-0.0005984248949
-0.01219379473
-0.003481882811
-0.01182096895
-0.006539847108
-0.01075537873
-0.009499406659
-0.008913750707
-0.01191605437
-0.006370857876
-0.01314440394
-0.00349896521
-0.01240621324
-0.001063151392
-0.009079499042
-0.00342997616
-0.00030740943
0.002744805958
-0.001006587467
0.006414975563
-0.0019383548
0.008642330629
-0.002991898962
0.009792481394
-0.004102813444
0.01017881028
-0.005237448962
0.01001188099
-0.006378627995
0.009408168427
-0.007514083781
0.00841127433
-0.008627331738
0.007017419945
-0.00968984414
0.005199386167
-0.01065314232
0.002927316663
-0.01143756778
0.0001860005676
-0.01192945614
-0.002989994448
-0.01196499044
-0.006504312809
-0.01134373897
-0.01012065812
-0.009868967809
-0.01339082552
-0.007460114263
-0.01555325748
-0.004363834576
-0.01550249292
-0.00142553564
-0.01201779798
-0.004855511797
-0.0003089282597
0.003053734207
-0.0009555674259
0.007061614723
-0.001768490038
0.009455253247
-0.002639390559
0.01066338193
-0.003518262045
0.01105768178
-0.004389722622
0.01088334158
-0.005256719219
0.01027516503
-0.006129514537
0.009284069647
-0.007017707115
0.007905612519
-0.00792332666
0.006105005705
-0.008832213244
0.003836203239
-0.009704214529
0.001058001847
-0.01045072635
-0.002243482631
-0.01092412005
-0.006030919111
-0.01089502848
-0.0101497497
-0.01006488814
-0.01422096586
-0.008157305527
-0.01746084009
-0.005167631655
-0.01849216679
-0.001854349
-0.01533108063
-0.006709860796
-0.0003552700572
0.003409004264
-0.0009733331821
0.007679677837
-0.001646057458
0.01012797753
-0.002268710428
0.01128603491
-0.002816840067
0.01160581143
-0.003303693676
0.0113701952
-0.003759410082
0.01073088144
-0.004220924765
0.009745584336
-0.004726146938
0.008410834693
-0.005309762713
0.006688621475
-0.005996656647
0.004523097166
-0.00679179828
0.001853143472
-0.007660585593
-0.001374695325
-0.008503029386
-0.005188475322
-0.00911317819
-0.009539600894
-0.009142508106
-0.01419163594
-0.008128400688
-0.01847494751
-0.005711156586
-0.02090941089
-0.002318284787
-0.01872395242
-0.009028145582
-0.0005003770306
0.003909381295
-0.001151296506
0.008330597307
-0.001674821068
0.0106515021
-0.00198164038
0.01159285422
-0.002095672508
0.01171984356
-0.002075735706
0.0113502584
-0.001988477219
0.01064362296
-0.001901151328
0.009658258454
-0.001878927137
0.008388610507
-0.001985971117
0.006795665457
-0.00228246695
0.004819592996
-0.002818755726
0.002389432245
-0.003622152177
-0.0005712988765
-0.004668842857
-0.004141784643
-0.005834634928
-0.008373808825
-0.006807663705
-0.01321860717
-0.007016668821
-0.01826594239
-0.005716401028
-0.02220967868
-0.002739567088
-0.02170078636
-0.01176771267
-0.000830885379
0.004740266672
-0.001604832887
0.009104544813
-0.00195097942
0.01099764863
-0.001839382856
0.01148125766
-0.001385434902
0.0112658956
-0.0007181317508
0.01068295525
4.82132422e-05
0.009877277974
0.0008164047272
0.008890066976
0.001495360684
0.007709654558
0.001998424228
0.006292601918
0.002238517618
0.004579499611
0.002128354993
0.002499594872
0.001583160151
-2.610403229e-05
0.0005450315924
-0.003103656083
-0.0009843145594
-0.006844462671
-0.00282840176
-0.01137451996
-0.004459125968
-0.01663521818
-0.004810489522
-0.02185831513
-0.002944290915
-0.02356698497
-0.01471200358
-0.001465682533
0.006205949201
-0.002379876679
0.01001873896
-0.002373444932
0.01099121687
-0.001603541947
0.01071135466
-0.000349626382
0.01001198003
0.001163642611
0.009169686255
0.00277184211
0.008269078479
0.004349534237
0.007312374856
0.005791623857
0.006267564946
0.006998015095
0.005086210686
0.007865493495
0.003712021215
0.008282285532
0.002082802839
0.00812382246
0.0001323590426
0.007264496973
-0.002244330592
0.005585213237
-0.005165178932
0.003073873169
-0.008863179893
7.89720101e-05
-0.01364031702
-0.002445747331
-0.01933359579
-0.002601078006
-0.02341165429
-0.01731308159
-0.002365504007
0.008571453205
-0.002963808727
0.01061704369
-0.001922814078
0.009950222208
8.111535651e-05
0.008707425234
0.002534887235
0.007558208147
0.0051402559
0.006564317592
0.007719753816
0.005689580568
0.0101546218
0.004877506878
0.0123495738
0.004072612946
0.01421200261
0.003223781885
0.0156405405
0.002283483318
0.01651758925
0.001205754091
0.01669709991
-4.715161825e-05
0.01602712646
-0.001574357135
0.01430509022
-0.003443142691
0.01133283088
-0.005890920556
0.007055613794
-0.00936309993
0.002201623678
-0.01447960567
-0.001027320537
-0.02018271007
-0.01834040212
-0.002150342908
0.01072179612
-7.199462073e-05
0.008538695494
0.003741898409
0.006136329109
0.007719772825
0.004729550825
0.01156187103
0.003716109944
0.01514101061
0.00298517802
0.01839885625
0.00243173492
0.02130155565
0.001974807477
0.02381243385
0.001561734735
0.02587973499
0.001156480743
0.02743056916
0.0007326491479
0.02836472834
0.0002715949057
0.02857561759
-0.0002580408679
0.02788766535
-0.0008864048951
0.02609934136
-0.001654818697
0.02290826571
-0.002699844908
0.01790696687
-0.004361801085
0.01076690817
-0.007339546962
0.002912180376
-0.01232798228
-0.01542822175
0.01072179611
0.01926049162
0.02539682074
0.03012637156
0.03384248151
0.03682765952
0.03925939444
0.04123420191
0.04279593664
0.04395241738
0.04468506653
0.04495666143
0.04469862057
0.04381221567
0.04215739698
0.03945755207
0.03509575099
0.02775620403
0.01542822175
)
;

boundaryField
{
    movingWall
    {
        type            calculated;
        value           uniform 0;
    }
    fixedWalls
    {
        type            calculated;
        value           uniform 0;
    }
    frontAndBack
    {
        type            empty;
    }
}


// ************************************************************************* //
