/*--------------------------------*- C++ -*----------------------------------*\
  =========                 |
  \\      /  F ield         | OpenFOAM: The Open Source CFD Toolbox
   \\    /   O peration     | Website:  https://openfoam.org
    \\  /    A nd           | Version:  13
     \\/     M anipulation  |
\*---------------------------------------------------------------------------*/
FoamFile
{
    format      ascii;
    class       volVectorField;
    location    "42";
    object      U;
}
// * * * * * * * * * * * * * * * * * * * * * * * * * * * * * * * * * * * * * //

dimensions      [0 1 -1 0 0 0 0];

internalField   nonuniform List<vector> 
400
(
(1.100540422e-05 -3.783221896e-05 0)
(-0.0006660957225 0.0004130425455 -1.551243252e-23)
(-0.0021853744 0.0009203935261 0)
(-0.00404783278 0.001312781228 0)
(-0.005971868631 0.001535066605 6.845577886e-25)
(-0.00776278348 0.001569848553 4.150878634e-24)
(-0.009284545027 0.001423563425 -7.373348817e-24)
(-0.01043594105 0.001119722195 7.530780588e-24)
(-0.0111368144 0.0006960813583 -2.095378699e-25)
(-0.01132711214 0.0002030771569 -3.994658673e-24)
(-0.01097177351 -0.000300233032 5.80362397e-24)
(-0.01007232841 -0.0007475153841 -5.929582272e-23)
(-0.008679879926 -0.001075561931 -6.552708687e-23)
(-0.006902852355 -0.001233044238 -7.784319571e-23)
(-0.004910737363 -0.001192638943 4.573587932e-24)
(-0.002927231419 -0.0009619210868 -4.137929174e-24)
(-0.001205298922 -0.0005912122535 -1.998753264e-22)
(-1.906830376e-05 -0.0001698833 0)
(0.0005181541898 0.0001720853642 1.509557939e-25)
(0.0002227514603 0.0003059788683 -2.552288021e-24)
(-0.0002633631532 0.000828969554 1.383021805e-25)
(-0.002703305308 0.003383841981 1.56103944e-23)
(-0.0069072762 0.00560450093 1.555253345e-25)
(-0.01195231904 0.007008207106 -8.495577071e-25)
(-0.01713504462 0.007553776376 1.162162403e-24)
(-0.02197535571 0.007294200935 1.306896194e-23)
(-0.02611076243 0.006321895514 1.388301922e-24)
(-0.02926564813 0.004754193583 -7.282499137e-24)
(-0.03122672982 0.002737151292 1.015277253e-23)
(-0.031842009 0.0004524050953 4.510005134e-24)
(-0.0310276138 -0.001884144724 -6.318896793e-24)
(-0.02879316627 -0.004023028782 2.961710033e-24)
(-0.02527138419 -0.005708353486 3.895546945e-23)
(-0.0207319496 -0.006707408909 -1.954771938e-24)
(-0.01558962694 -0.006854140433 3.754487142e-24)
(-0.01038513418 -0.006097465543 -9.741009032e-23)
(-0.005730272021 -0.004546188306 9.637668531e-23)
(-0.002233366682 -0.002507420703 -3.961196485e-25)
(-0.0001817748652 -0.0005023733991 4.061098582e-25)
(8.343566677e-05 0.0006099252596 0)
(-0.0004188234161 0.00293507985 -2.910445053e-25)
(-0.004647875072 0.008804016068 1.702097314e-23)
(-0.01137196091 0.01324042463 -8.283096518e-24)
(-0.01932729119 0.0157920409 -2.075359208e-25)
(-0.02747411694 0.01652999975 2.038823739e-25)
(-0.03511778824 0.01564441657 6.816536809e-27)
(-0.04171344851 0.01335997674 -1.220796457e-24)
(-0.04683571785 0.009919772306 -4.551445899e-25)
(-0.05014988984 0.005602434224 -1.063097787e-23)
(-0.05141231904 0.0007444207845 0)
(-0.05047793206 -0.004241780956 0)
(-0.04733706228 -0.008887187665 2.671017014e-23)
(-0.04215927891 -0.01268176974 2.813025508e-23)
(-0.03531437457 -0.01513605175 -1.646168575e-24)
(-0.02738996324 -0.01586189563 4.845888068e-23)
(-0.01917005946 -0.01467334212 9.419311371e-23)
(-0.01156090753 -0.01169360461 3.975753848e-23)
(-0.005465411655 -0.007450743893 4.142002379e-25)
(-0.00145109908 -0.002936044087 1.073712218e-25)
(-9.072693462e-05 0.0002258763711 0)
(-0.000502462907 0.006045350056 -4.248943197e-23)
(-0.006402739966 0.01637075618 -1.692320566e-23)
(-0.01553502532 0.023559337 8.209937415e-24)
(-0.02627912155 0.02744162724 0)
(-0.03728746813 0.02832102218 0)
(-0.04769037482 0.02658772511 0)
(-0.0567966301 0.02263120294 -4.467627902e-26)
(-0.06405384038 0.01683609275 -2.136610216e-24)
(-0.06901081537 0.009622184013 0)
(-0.07130827924 0.001491050494 1.635452607e-24)
(-0.07070853558 -0.006936503714 2.802779385e-25)
(-0.06713039427 -0.01493018866 -2.810627102e-25)
(-0.06069905622 -0.02166728212 0)
(-0.05180750579 -0.0263160582 4.133291592e-23)
(-0.04114991744 -0.02816070928 -4.681600287e-23)
(-0.0297197028 -0.02677372269 -2.761972531e-23)
(-0.01873716689 -0.02221530534 -3.96090041e-23)
(-0.009488028107 -0.01521922191 7.795927929e-25)
(-0.002976879646 -0.00729819482 9.790297799e-23)
(-0.0002318795434 -0.0008661683697 0)
(-0.0005316128544 0.010095016 4.269604426e-23)
(-0.007983592502 0.02595219532 4.785242128e-25)
(-0.01939687501 0.0364288289 -4.675948763e-25)
(-0.03282382535 0.04185520841 0)
(-0.04664689106 0.04289485379 7.782776079e-25)
(-0.05985229753 0.04020074145 -7.674865059e-25)
(-0.07163291429 0.03434741712 3.672237568e-23)
(-0.08132751272 0.02585664076 1.848161963e-23)
(-0.08836601087 0.01527298322 6.238731451e-24)
(-0.0922546954 0.003246146874 -1.637357932e-24)
(-0.09260379771 -0.00940783234 0)
(-0.08917555479 -0.02167478005 4.370644129e-25)
(-0.08195979226 -0.03236745055 1.009018199e-23)
(-0.07126885441 -0.0402125016 -4.349324802e-23)
(-0.05782018846 -0.04402046367 1.932915074e-24)
(-0.04278582995 -0.04294829381 4.217331517e-23)
(-0.02775450331 -0.03683346929 -3.841875325e-25)
(-0.01455062289 -0.02652720965 0)
(-0.004859462118 -0.01408454495 5.436540533e-23)
(-0.0003641481891 -0.002846953576 -2.565070994e-22)
(-0.000527221113 0.01499927774 9.841437803e-23)
(-0.009377925381 0.03739022298 -4.907687995e-25)
(-0.02288182759 0.0517022301 0)
(-0.03883043543 0.05894183165 0)
(-0.05538656835 0.06025574704 -8.732077363e-23)
(-0.07142876766 0.05661901154 -8.499046437e-23)
(-0.0860665425 0.04880168838 -4.067487796e-23)
(-0.0985508608 0.03743980535 -1.504343252e-23)
(-0.1081945317 0.02315983949 -5.368786462e-24)
(-0.1143444731 0.006709679046 -8.174923359e-24)
(-0.1164046207 -0.01093292155 6.60105846e-24)
(-0.1138937397 -0.02848945018 8.826603184e-24)
(-0.1065486976 -0.04437046217 -1.892319972e-23)
(-0.09446804026 -0.05675333727 4.607360159e-24)
(-0.07826856896 -0.06378298634 0)
(-0.05922895433 -0.06393495391 -1.572912164e-23)
(-0.03933981884 -0.05653816249 -2.427847403e-26)
(-0.02114188786 -0.04235809097 0)
(-0.007318702596 -0.02398229412 -1.520640119e-22)
(-0.0005216164075 -0.005925545115 6.056256119e-22)
(-0.0004990824901 0.02064574598 -9.774390709e-23)
(-0.01052951034 0.0504543822 2.831974673e-22)
(-0.0258295747 0.06912511728 1.526856278e-22)
(-0.04402138324 0.07849257925 3.619268693e-24)
(-0.06310739201 0.08029476434 -7.319351596e-23)
(-0.08190405129 0.07588042947 9.043499654e-23)
(-0.09947763736 0.06621690726 -3.590203699e-24)
(-0.1150227382 0.05201695076 -1.729163518e-24)
(-0.1277519182 0.03392358482 2.524150542e-24)
(-0.1368472599 0.01270233176 7.382561941e-24)
(-0.1414710514 -0.01058782332 -6.500809022e-24)
(-0.1408248172 -0.0344602436 -9.788017093e-24)
(-0.1342745959 -0.05692771684 -3.261732535e-23)
(-0.1215450234 -0.07553316185 -3.661446414e-23)
(-0.1029672654 -0.08754260523 5.645869056e-25)
(-0.07976369886 -0.09039209617 0)
(-0.05426682462 -0.08244513695 0)
(-0.02987160921 -0.06397736826 -2.906054779e-24)
(-0.01066285138 -0.03798794716 2.97050379e-24)
(-0.0007350936337 -0.01050089504 1.027872971e-22)
(-0.0004479166489 0.026872511 0)
(-0.0113492326 0.06480757557 2.001983311e-22)
(-0.02801599727 0.08829617269 8.962059762e-23)
(-0.04799857376 0.1001234946 0)
(-0.06920602017 0.1027076552 1.569880825e-22)
(-0.09044373234 0.09781578619 0)
(-0.1107831689 0.08661103049 -1.428387942e-22)
(-0.1294093775 0.06983950386 6.515554842e-24)
(-0.1454771648 0.04808232224 0)
(-0.1580351823 0.02201755592 0)
(-0.1660133461 -0.007334439661 -1.374408874e-24)
(-0.1682671558 -0.03838839728 -9.316762468e-25)
(-0.1637064697 -0.0688397585 1.491978072e-22)
(-0.1515208762 -0.09558275737 -4.704629382e-23)
(-0.1315134557 -0.1148298655 -2.56096733e-24)
(-0.1045596077 -0.1225703407 1.534723413e-24)
(-0.07309349894 -0.1155517963 -1.558932572e-24)
(-0.04135021483 -0.09283115556 0)
(-0.01525230273 -0.05740767645 3.203808955e-24)
(-0.001044309052 -0.01714714494 -1.012913302e-21)
(-0.0003744663096 0.03346304448 0)
(-0.01175006048 0.07998918688 -1.128288576e-22)
(-0.02920707953 0.1086390942 -6.191146006e-22)
(-0.05031745055 0.123223399 -3.7553051e-22)
(-0.07296317474 0.1269097032 0)
(-0.09598960244 0.1219255637 4.119455742e-22)
(-0.1185273493 0.1096348642 1.260924648e-22)
(-0.1398146435 0.09078245874 -5.581833631e-24)
(-0.159022157 0.06581393182 5.554206554e-24)
(-0.1751461024 0.03520881124 0)
(-0.1869560003 -0.0001967468983 2.912129387e-23)
(-0.1930172663 -0.03889754319 4.695836215e-24)
(-0.1917809925 -0.07843888515 -1.076807966e-22)
(-0.1817874446 -0.1151865377 8.004204528e-23)
(-0.1620570443 -0.1442599463 -2.419744847e-22)
(-0.1327062007 -0.1598548627 0)
(-0.09577888192 -0.1563112885 0)
(-0.05601633064 -0.1302981083 0)
(-0.02147859132 -0.08381135108 0)
(-0.001500384558 -0.02665516307 5.572112707e-22)
(-0.0002873897716 0.04016077715 0)
(-0.01169359601 0.09543611449 -3.493014931e-22)
(-0.02924438283 0.1294073622 8.932796878e-22)
(-0.05060947282 0.1469299164 3.61717746e-22)
(-0.07370082642 0.1519748669 0)
(-0.09745151135 0.1472757958 -3.862553608e-22)
(-0.1211069841 0.1344191947 -3.174429909e-23)
(-0.1440324795 0.1141393318 3.333104938e-22)
(-0.1655143249 0.08670006634 1.769474656e-22)
(-0.1846248537 0.05229123534 -4.060151566e-23)
(-0.2001325826 0.01141716239 1.656821956e-23)
(-0.2104622456 -0.03471424103 -8.265245744e-24)
(-0.2137208538 -0.08376563572 3.371857658e-22)
(-0.2078215505 -0.1318756345 0)
(-0.190823854 -0.1732756135 2.420913873e-22)
(-0.161633574 -0.2002593392 5.77477203e-24)
(-0.1211662691 -0.2040121705 -5.860890962e-24)
(-0.07384989793 -0.1772119953 1.548446136e-22)
(-0.02971786817 -0.1188642324 -5.435454703e-24)
(-0.002179545085 -0.04005398739 0)
(-0.0002117199641 0.0467164002 0)
(-0.0112500109 0.1105498122 0)
(-0.02815624439 0.1497354996 -5.022755695e-22)
(-0.04874479276 0.1701517597 -1.88099747e-23)
(-0.07100086603 0.1766257141 2.03837831e-23)
(-0.09399451466 0.1724526506 -2.014310811e-23)
(-0.1171434299 0.1594870984 -2.316883513e-23)
(-0.1400179505 0.1384805081 -3.029823484e-22)
(-0.1621328893 0.1095160717 6.698614702e-23)
(-0.182795904 0.07245187008 4.513177332e-23)
(-0.200983556 0.02734928908 -4.577719867e-23)
(-0.2152270266 -0.02508697684 0)
(-0.2235562214 -0.08298351281 -7.839678484e-23)
(-0.2234632198 -0.1427257324 0)
(-0.2120679433 -0.1981820875 -3.739561872e-22)
(-0.186743455 -0.2400773691 5.244953266e-22)
(-0.1464438304 -0.2560773408 0)
(-0.09394567726 -0.2331209501 -1.493992284e-22)
(-0.04022000986 -0.1639613658 1.937548742e-22)
(-0.003201100225 -0.05861063133 -3.411528305e-22)
(-0.0002015411156 0.05297585102 0)
(-0.01067261906 0.1248172386 9.182869669e-22)
(-0.02628446683 0.1687424576 -2.440685242e-23)
(-0.045011078 0.1916455133 9.193338284e-22)
(-0.0649459748 0.1992921046 -2.51208621e-23)
(-0.08536628521 0.1956104311 2.83884437e-23)
(-0.1059305649 0.1827886838 -2.812930429e-23)
(-0.1264924189 0.1616583505 -1.660918132e-23)
(-0.146899685 0.13217623 -5.26022953e-22)
(-0.1668458159 0.09389646657 -8.906629096e-24)
(-0.1857303026 0.04640576346 9.660196274e-24)
(-0.2024781688 -0.01023784681 3.313077991e-22)
(-0.2154154615 -0.07499820262 -5.820740207e-22)
(-0.2220209718 -0.1450311832 0)
(-0.2188032106 -0.2146760612 8.887323487e-22)
(-0.2016257527 -0.2740016418 -4.940885957e-22)
(-0.1668639194 -0.3075811953 -1.572222898e-23)
(-0.1140220094 -0.2953811908 0)
(-0.05288482016 -0.2195802575 -1.890182469e-22)
(-0.00474918814 -0.08377277935 3.360586108e-22)
(-0.0003641986965 0.05902317744 1.551010446e-23)
(-0.01049573986 0.1379881498 -8.764197327e-22)
(-0.02441389576 0.1856804097 -1.157059156e-21)
(-0.04026724448 0.2101384745 -8.628987227e-22)
(-0.0563072961 0.2182348905 0)
(-0.07214856544 0.2146190263 3.513805704e-23)
(-0.08779221617 0.201879195 -7.294867474e-23)
(-0.1034562792 0.1810005607 5.867885436e-23)
(-0.1193983875 0.1518997242 3.021367196e-22)
(-0.135793155 0.1139150572 -1.128195904e-23)
(-0.1526082325 0.06621425002 0)
(-0.1694521382 0.008177204122 -3.603930066e-22)
(-0.1852760606 -0.06015987614 7.515669024e-22)
(-0.1980448526 -0.1372747003 8.831704897e-22)
(-0.2043546273 -0.2189261879 -5.296627492e-22)
(-0.199097762 -0.2959712905 5.162689882e-22)
(-0.1760605336 -0.3514072582 1.078232662e-23)
(-0.1300890635 -0.3584150778 -1.095547698e-23)
(-0.06688803315 -0.2843276506 -8.215343942e-23)
(-0.007083319942 -0.1169964414 0)
(-0.0009095777022 0.06540041523 -1.911487011e-23)
(-0.01167591761 0.1502816406 -1.326965681e-21)
(-0.0238888212 0.2000659554 1.094237543e-21)
(-0.03601340452 0.2244216961 6.734930297e-22)
(-0.04657308754 0.2316588239 6.014632008e-22)
(-0.05577038501 0.2272393691 6.643957312e-22)
(-0.0641124574 0.2141774872 -4.45867801e-23)
(-0.07227561634 0.1936494379 -3.461337449e-22)
(-0.08096972941 0.1656028316 2.152162636e-22)
(-0.0908719232 0.1292707356 0)
(-0.1025547454 0.08353082495 0)
(-0.116362216 0.02720010765 2.655397127e-22)
(-0.1321589565 -0.04062005952 8.1943265e-23)
(-0.1489252325 -0.12001283 -2.821623702e-22)
(-0.1641284289 -0.208930068 -5.411271998e-23)
(-0.1727877627 -0.3006992496 1.301951972e-22)
(-0.1670311311 -0.3793329092 -3.400504356e-22)
(-0.1365292443 -0.413645196 -1.593855284e-23)
(-0.08018250156 -0.3538326195 8.204116584e-23)
(-0.01050762296 -0.1594130565 -6.032163427e-22)
(-0.002260498494 0.07348883498 0)
(-0.01580355704 0.1626521767 2.145874737e-21)
(-0.02665042652 0.2117904732 0)
(-0.03422339676 0.2333947267 -1.351807957e-21)
(-0.03759398563 0.2377766821 6.184055435e-23)
(-0.03799685322 0.2312553518 -6.193094918e-22)
(-0.0366826598 0.2171899005 -4.7562844e-22)
(-0.03489036422 0.1968934488 8.301255234e-22)
(-0.03378838001 0.1703342382 -1.885698215e-22)
(-0.03449876539 0.1367221076 0)
(-0.03811572827 0.0947967365 0)
(-0.04564992559 0.04304286633 2.410615562e-23)
(-0.05790804445 -0.02013781159 -6.007198868e-22)
(-0.07514598699 -0.09620650125 -4.309567195e-22)
(-0.09645175142 -0.1855556163 4.637862562e-22)
(-0.118346263 -0.2853567762 -6.488735112e-22)
(-0.1332715393 -0.3838386524 9.11994601e-23)
(-0.1265350995 -0.4504358704 2.937341112e-23)
(-0.08899154112 -0.4198536366 5.660446141e-22)
(-0.01526917935 -0.2111719726 6.020796162e-22)
(-0.005180899595 0.08598045939 0)
(-0.02525550756 0.1766291187 1.465579482e-22)
(-0.03483408066 0.2205961548 -4.917144491e-23)
(-0.03640013965 0.2354859343 7.642930339e-22)
(-0.03018483149 0.2343406746 -7.005377693e-22)
(-0.0191657954 0.2241603876 4.746480613e-23)
(-0.005615151295 0.2083525839 -1.018609734e-22)
(0.008569606774 0.1881241084 -3.389888549e-22)
(0.0217988607 0.1633911269 2.062822684e-22)
(0.03262781356 0.1333242733 0)
(0.03958458432 0.09664086211 0)
(0.04117013127 0.05174056486 -2.902667717e-22)
(0.03578483694 -0.003255397271 0)
(0.02198184563 -0.07058360778 -5.512186949e-22)
(-0.001264847112 -0.15257355 -1.492377307e-23)
(-0.0331046997 -0.250594984 2.559740118e-23)
(-0.06909235891 -0.3599341509 2.203141259e-22)
(-0.09227827053 -0.457542452 4.788098854e-24)
(-0.08718089945 -0.4698129407 -5.789414726e-22)
(-0.02103127152 -0.2698972291 0)
(-0.01111631554 0.1085974971 0)
(-0.04248901894 0.1947151671 -8.848479004e-22)
(-0.04795528996 0.2258195505 -5.411039588e-22)
(-0.03919536044 0.228213555 4.543816534e-22)
(-0.01877830413 0.2182328129 -1.709983745e-24)
(0.007664312542 0.202822035 -4.561049393e-23)
(0.03667993254 0.1847619766 5.696681595e-22)
(0.06582998445 0.1647118215 -2.766890262e-23)
(0.09327130758 0.142312818 -2.069781568e-22)
(0.1173891594 0.1166274942 3.142213378e-23)
(0.1365461673 0.08641143935 -3.425917042e-23)
(0.1489669253 0.05017669079 -3.690594019e-23)
(0.1525275767 0.006159167455 3.205633449e-22)
(0.1449367018 -0.04796126974 6.119606076e-22)
(0.1235159779 -0.1153052904 -5.101171359e-22)
(0.08633533329 -0.2004195644 -1.616057755e-22)
(0.03199089195 -0.3067806587 1.531308571e-22)
(-0.02362123227 -0.4239837141 7.293654063e-23)
(-0.06492413083 -0.4871612784 1.913291851e-21)
(-0.02509971708 -0.329154474 2.954991732e-21)
(-0.02004680475 0.1460727399 -4.390207535e-23)
(-0.06416406249 0.211295585 4.417380285e-23)
(-0.05070230597 0.2177300478 1.000188551e-21)
(-0.01934097418 0.2014679982 -8.270559281e-24)
(0.02414464851 0.1809076178 0)
(0.07154121961 0.1606933348 4.36372203e-23)
(0.1190703395 0.1416495495 -2.273851817e-22)
(0.164476732 0.1233181825 -9.027956837e-23)
(0.2062251146 0.1048117298 3.680734497e-23)
(0.2429643011 0.08507140133 -1.701654919e-23)
(0.2732207568 0.06296147722 3.42997035e-23)
(0.2952536098 0.03726293863 -6.592681177e-23)
(0.3066971051 0.006535068526 -9.303905757e-23)
(0.3049738304 -0.03087770015 1.517044084e-22)
(0.2863936242 -0.07786290943 0)
(0.2470568078 -0.1399300367 1.505610702e-22)
(0.181092223 -0.2266299751 2.560014042e-22)
(0.09604450201 -0.3443894946 0)
(-0.006697616126 -0.4552210217 -3.675635219e-21)
(-0.01922408206 -0.3777537586 -2.892621196e-21)
(-0.02591951348 0.2276828797 -9.514204318e-22)
(-0.03998324591 0.2238216525 -1.388976404e-22)
(0.03656136938 0.1810585357 -2.335581889e-22)
(0.1090503044 0.1451059091 -1.193742137e-22)
(0.1817191192 0.1172445496 -4.295826261e-23)
(0.249009073 0.09627907653 9.783182256e-23)
(0.3100336699 0.08002510449 -1.408592318e-22)
(0.3646209328 0.06656815375 1.297175357e-22)
(0.4126252489 0.05449178931 -8.62012085e-23)
(0.4536250294 0.0427089496 1.13218884e-25)
(0.4867878719 0.03032298444 1.527741812e-23)
(0.510745136 0.01652901874 7.997205225e-23)
(0.5236597453 0.0005365144446 -1.811123891e-22)
(0.5231798011 -0.01863373245 -1.61714622e-22)
(0.5052323418 -0.04286478954 -4.262953563e-23)
(0.465871508 -0.07633231184 0)
(0.3952696497 -0.1286089384 -1.84647797e-22)
(0.2916071047 -0.2208468098 8.148763992e-22)
(0.1197455105 -0.3525016903 1.631601679e-21)
(0.02670547256 -0.3775497979 2.17265596e-21)
(0.2142894469 0.1347447207 9.86498926e-22)
(0.2776311188 0.09870503565 0)
(0.4316592294 0.05810414808 -2.594320897e-22)
(0.5304749349 0.03846264952 -1.741666668e-22)
(0.6016965753 0.02623419122 0)
(0.6571198961 0.01831923485 -6.009092708e-23)
(0.7015213604 0.01313600858 6.378002247e-23)
(0.7376042501 0.009542126441 -1.800156698e-23)
(0.7669368416 0.006804463671 2.885974407e-23)
(0.7902106684 0.004464743916 2.315033315e-23)
(0.8074555008 0.002221319827 0)
(0.8182621353 -0.0001500750303 -2.873033031e-23)
(0.8216499713 -0.002723848338 0)
(0.8162394195 -0.005712668693 2.738150716e-23)
(0.7991333147 -0.009611382853 1.421691471e-23)
(0.7679986344 -0.01500255107 -5.799404226e-23)
(0.7106555755 -0.02502519954 -2.535661263e-22)
(0.623518398 -0.04204285407 -6.9181022e-22)
(0.423009102 -0.0918296808 0)
(0.2705674689 -0.1524021841 -2.119483824e-21)
)
;

boundaryField
{
    movingWall
    {
        type            fixedValue;
        value           uniform (1 0 0);
    }
    fixedWalls
    {
        type            fixedValue;
        value           uniform (0 0 0);
    }
    frontAndBack
    {
        type            empty;
    }
}


// ************************************************************************* //
