/*--------------------------------*- C++ -*----------------------------------*\
  =========                 |
  \\      /  F ield         | OpenFOAM: The Open Source CFD Toolbox
   \\    /   O peration     | Website:  https://openfoam.org
    \\  /    A nd           | Version:  13
     \\/     M anipulation  |
\*---------------------------------------------------------------------------*/
FoamFile
{
    format      ascii;
    class       volVectorField;
    location    "42";
    object      U;
}
// * * * * * * * * * * * * * * * * * * * * * * * * * * * * * * * * * * * * * //

dimensions      [0 1 -1 0 0 0 0];

internalField   nonuniform List<vector> 
400
(
(0.0001828802008 -0.0001867788663 0)
(-0.0001376506327 2.99697646e-05 0)
(-0.001533785527 0.0002683384877 0)
(-0.003786669368 0.0004194457952 0)
(-0.006548081076 0.0004993327853 0)
(-0.009516513294 0.0005298182557 0)
(-0.01244177726 0.0005206686734 0)
(-0.0150900593 0.0004708039154 0)
(-0.01722053166 0.0003734205848 0)
(-0.01858611243 0.0002230917208 0)
(-0.01896088271 2.305863762e-05 0)
(-0.01818958721 -0.0002092434149 0)
(-0.01624713962 -0.0004397943606 0)
(-0.01328954798 -0.000621948475 0)
(-0.009674020961 -0.0007070101631 0)
(-0.005928004911 -0.0006600179415 0)
(-0.002658579146 -0.0004748382126 0)
(-0.0004078659634 -0.000182100875 0)
(0.0005400470996 0.0001370965403 0)
(0.000309677844 0.0003026988603 0)
(-4.71528576e-05 0.0001366049995 0)
(-0.002079064294 0.001932379893 0)
(-0.006432989912 0.003759943976 0)
(-0.01258317225 0.005023722253 0)
(-0.01977083972 0.005689022173 0)
(-0.02732465918 0.005832317017 0)
(-0.03463919134 0.005504182908 0)
(-0.04113188888 0.004710937973 0)
(-0.04622246981 0.003442746697 0)
(-0.04935218681 0.001719053587 0)
(-0.05004789926 -0.0003672146481 0)
(-0.04801955029 -0.002621297578 0)
(-0.04326849832 -0.0047457105 0)
(-0.03617434153 -0.006377006 0)
(-0.02752293501 -0.007162178488 0)
(-0.01844177355 -0.006864027461 0)
(-0.01022160394 -0.005467741259 0)
(-0.004032659347 -0.003255920058 0)
(-0.0005765277917 -0.0008612357284 0)
(0.0002216279196 0.0005892667965 0)
(-0.0003532525655 0.001716667913 0)
(-0.004485867323 0.006465080013 0)
(-0.01186898893 0.01067263261 0)
(-0.02159835393 0.01351787568 0)
(-0.03257594301 0.01495179596 0)
(-0.04388919203 0.01510201451 0)
(-0.05469907001 0.01405777989 0)
(-0.06418854663 0.01184134536 0)
(-0.07155483557 0.008466064471 0)
(-0.0760455104 0.004026867856 0)
(-0.07704086999 -0.001215251909 0)
(-0.07416949132 -0.006783221212 0)
(-0.06743367506 -0.01199025529 0)
(-0.05731422784 -0.01601892703 0)
(-0.04481649825 -0.01807943386 0)
(-0.03141407421 -0.01763155843 0)
(-0.01884954836 -0.01462043488 0)
(-0.008790332049 -0.009649829589 0)
(-0.002418453896 -0.004055376976 0)
(3.517547169e-05 2.455459052e-05 0)
(-0.0006306571511 0.004594152358 0)
(-0.006810344968 0.01367313677 0)
(-0.01709963901 0.02092047839 0)
(-0.03014744478 0.02562863316 0)
(-0.04451432929 0.02786259085 0)
(-0.05910677028 0.0278414017 0)
(-0.07293957114 0.02570439471 0)
(-0.08505444632 0.02149786462 0)
(-0.09451165304 0.01527393675 0)
(-0.1004284783 0.00722909536 0)
(-0.1020624883 -0.002171225623 0)
(-0.09892893303 -0.01211984271 0)
(-0.0909368235 -0.02147450222 0)
(-0.07852254678 -0.02887020588 0)
(-0.06274646468 -0.03295433488 0)
(-0.04529659133 -0.03273916341 0)
(-0.02832511806 -0.02800889212 0)
(-0.01408139778 -0.01964713623 0)
(-0.004431476991 -0.009747770037 0)
(-0.0001252117889 -0.001515966331 0)
(-0.0008696726394 0.008652749806 0)
(-0.008889825715 0.02332883485 0)
(-0.02181751336 0.03417261504 0)
(-0.03786255995 0.04091615099 0)
(-0.05526559209 0.04391212688 0)
(-0.07279732218 0.04354714729 0)
(-0.08939294878 0.0400377244 0)
(-0.1040258851 0.03346037145 0)
(-0.1156814204 0.02390261094 0)
(-0.1233798533 0.01165150394 0)
(-0.1262443991 -0.00264030916 0)
(-0.1236092025 -0.01785014081 0)
(-0.1151660678 -0.03237159669 0)
(-0.1011431678 -0.04422984168 0)
(-0.08248827996 -0.05136712811 0)
(-0.06098968226 -0.05212665081 0)
(-0.0392153616 -0.04588364012 0)
(-0.0201654474 -0.03363044965 0)
(-0.006681507318 -0.01821936058 0)
(-0.0002715809674 -0.004090274888 0)
(-0.001066614766 0.01373176914 0)
(-0.01064303254 0.0351302908 0)
(-0.02583050527 0.05007661799 0)
(-0.04445944393 0.05901511127 0)
(-0.06450308752 0.06275991756 0)
(-0.08464446958 0.06195699444 0)
(-0.1037972382 0.05693737956 0)
(-0.1209285615 0.0478104251 0)
(-0.1350009164 0.03467534249 0)
(-0.1449639489 0.0178618459 0)
(-0.149792141 -0.001857331167 0)
(-0.1485721398 -0.02311327269 0)
(-0.1406550479 -0.04387674335 0)
(-0.1258857779 -0.06152642085 0)
(-0.1048977314 -0.07313613124 0)
(-0.07940681739 -0.07606820156 0)
(-0.0523447277 -0.06888209549 0)
(-0.02762629164 -0.05234012459 0)
(-0.009450003285 -0.0299976052 0)
(-0.0004468269778 -0.007848681327 0)
(-0.001213890695 0.0196385751 0)
(-0.01199538347 0.04869380691 0)
(-0.02896084004 0.06818428929 0)
(-0.04964702426 0.07948281524 0)
(-0.07183022495 0.0840190988 0)
(-0.09415658315 0.08279159125 0)
(-0.1155725214 0.07628804968 0)
(-0.135097897 0.06465075245 0)
(-0.1517275842 0.04795191249 0)
(-0.1643804751 0.02648737444 0)
(-0.1718934508 0.001041103125 0)
(-0.1730758444 -0.02689564937 0)
(-0.1668489186 -0.05497036236 0)
(-0.1525087368 -0.07993378263 0)
(-0.1301329608 -0.09785002478 0)
(-0.1010855155 -0.1047308296 0)
(-0.06845549754 -0.09773465167 0)
(-0.03712572945 -0.07679238067 0)
(-0.01309824294 -0.04593355442 0)
(-0.0007024136575 -0.01312068211 0)
(-0.001302841852 0.02614185863 0)
(-0.01287522108 0.06354808035 0)
(-0.03103616935 0.0879300782 0)
(-0.05312166258 0.1017424635 0)
(-0.07678517242 0.1071571161 0)
(-0.1006838974 0.1056136809 0)
(-0.1238474835 0.09780315715 0)
(-0.1454079255 0.08390392643 0)
(-0.1644587993 0.06391892137 0)
(-0.1799563386 0.03802020301 0)
(-0.1906612805 0.006867122395 0)
(-0.1951408668 -0.02809708282 0)
(-0.1918681454 -0.06436910358 0)
(-0.1794774559 -0.09818880123 0)
(-0.1572395883 -0.1245662787 0)
(-0.1257739703 -0.1378191499 0)
(-0.08789135611 -0.132968976 0)
(-0.04923895616 -0.108138534 0)
(-0.01802123824 -0.06719857597 0)
(-0.001101575548 -0.02043998535 0)
(-0.001328763031 0.03297569352 0)
(-0.01323589279 0.07914316112 0)
(-0.03192598243 0.108630996 0)
(-0.05461853459 0.1250580156 0)
(-0.07891053011 0.1314357165 0)
(-0.1035108369 0.1297292701 0)
(-0.1275775868 0.1208871192 0)
(-0.1504149368 0.1051389661 0)
(-0.1712942333 0.08238824142 0)
(-0.1893095457 0.05260118345 0)
(-0.2032643887 0.01617291649 0)
(-0.2116058107 -0.02569991919 0)
(-0.2124477488 -0.07061133491 0)
(-0.2037543299 -0.1145431867 0)
(-0.1837976405 -0.1515927005 0)
(-0.1520049151 -0.1742038324 0)
(-0.1102295378 -0.1744974917 0)
(-0.06426441305 -0.147384331 0)
(-0.02461797712 -0.09520554946 0)
(-0.001727479461 -0.0305577225 0)
(-0.001298308042 0.03986232292 0)
(-0.01309429084 0.09488361369 0)
(-0.03160926245 0.1295072707 0)
(-0.05400739074 0.1485294474 0)
(-0.07788059654 0.1558756749 0)
(-0.1020237515 0.1541202708 0)
(-0.1257649648 0.1445349068 0)
(-0.1486393904 0.1274362136 0)
(-0.1701819863 0.1026255081 0)
(-0.1897480123 0.06981260601 0)
(-0.206350796 0.02901455382 0)
(-0.2185206874 -0.01901742339 0)
(-0.2242253699 -0.07227490404 0)
(-0.2209066725 -0.1268783842 0)
(-0.2057998052 -0.1764089221 0)
(-0.1767643622 -0.2115888108 0)
(-0.1338709729 -0.2210923394 0)
(-0.08194676229 -0.1949159659 0)
(-0.03323583014 -0.1314183863 0)
(-0.002694011518 -0.04444984308 0)
(-0.00123938998 0.04656073109 0)
(-0.01258247359 0.1101979874 0)
(-0.03026355074 0.1497360294 0)
(-0.05141623759 0.1711205846 0)
(-0.07366411704 0.1792616608 0)
(-0.09592728731 0.1774313319 0)
(-0.1177497895 0.1673018762 0)
(-0.1389549931 0.1493346851 0)
(-0.159422592 0.1232622493 0)
(-0.1788918913 0.08853653619 0)
(-0.1967688303 0.04473884104 0)
(-0.2119174459 -0.007978869613 0)
(-0.2224760592 -0.06832640175 0)
(-0.2256884043 -0.1330399979 0)
(-0.2179591729 -0.195852372 0)
(-0.1954511824 -0.2463878169 0)
(-0.1557054082 -0.2698820873 0)
(-0.101101377 -0.2498369468 0)
(-0.04404299677 -0.1769863976 0)
(-0.004155625504 -0.06330574747 0)
(-0.001214592112 0.05294894889 0)
(-0.01201195599 0.1246522539 0)
(-0.02836468438 0.1685420007 0)
(-0.04735759643 0.1917224516 0)
(-0.06668051866 0.2001932836 0)
(-0.08544847438 0.1980236372 0)
(-0.1034897838 0.1873663338 0)
(-0.1209755045 0.168896457 0)
(-0.1381939058 0.1423399871 0)
(-0.1553589964 0.1069403779 0)
(-0.1724166296 0.06185650745 0)
(-0.18881882 0.006571684468 0)
(-0.203210324 -0.05855646533 0)
(-0.2130916444 -0.1313896481 0)
(-0.214549168 -0.2066566393 0)
(-0.2023258033 -0.2740076801 0)
(-0.1710695472 -0.3161182963 0)
(-0.1192318241 -0.3092363311 0)
(-0.05678241652 -0.232132951 0)
(-0.006309819962 -0.08846795833 0)
(-0.001342683265 0.0591529355 0)
(-0.01195736687 0.1381085201 0)
(-0.02678712527 0.1853125052 0)
(-0.04282222925 0.209233492 0)
(-0.05788677695 0.2171638071 0)
(-0.07143447364 0.2140797659 0)
(-0.08369543811 0.20267359 0)
(-0.09525886986 0.1838862533 0)
(-0.1068613487 0.1575033722 0)
(-0.1192284748 0.1226422882 0)
(-0.1329138959 0.07812368748 0)
(-0.1480879845 0.02281100447 0)
(-0.1642096934 -0.04392985662 0)
(-0.1795568416 -0.121448346 0)
(-0.1906077138 -0.2062988918 0)
(-0.1914599063 -0.289643292 0)
(-0.174180759 -0.3534884206 0)
(-0.1323405839 -0.3676676549 0)
(-0.07038832069 -0.2952674622 0)
(-0.009378211679 -0.1212503604 0)
(-0.001839217091 0.06574494053 0)
(-0.01337504981 0.150921068 0)
(-0.02688820151 0.1996985151 0)
(-0.03928056345 0.2226077176 0)
(-0.04869462469 0.2286157644 0)
(-0.05520448115 0.2237054462 0)
(-0.05963589935 0.2111008608 0)
(-0.06308424974 0.1920007409 0)
(-0.06674755808 0.1662809454 0)
(-0.07183455719 0.1330126511 0)
(-0.07947123089 0.090807614 0)
(-0.09055669629 0.03807066282 0)
(-0.1055007563 -0.0267071436 0)
(-0.1237533574 -0.1043930197 0)
(-0.1429846742 -0.1939180006 0)
(-0.1578388521 -0.2894639339 0)
(-0.1589517501 -0.375102771 0)
(-0.1350829601 -0.4172098682 0)
(-0.08250759321 -0.3619474126 0)
(-0.01351416596 -0.1624749405 0)
(-0.003076604309 0.07403629217 0)
(-0.01775110671 0.1641366542 0)
(-0.03049081901 0.2116167803 0)
(-0.03841438984 0.2307767374 0)
(-0.04046980874 0.2328832721 0)
(-0.03785941986 0.2249343676 0)
(-0.03228619034 0.2105363441 0)
(-0.02544989793 0.1910251616 0)
(-0.01899584743 0.1663221588 0)
(-0.01453430223 0.1354905028 0)
(-0.01364558973 0.09705926734 0)
(-0.01783877239 0.04919854943 0)
(-0.02841631945 -0.01015677365 0)
(-0.04614325435 -0.08307498285 0)
(-0.07048327455 -0.1708654519 0)
(-0.09795974205 -0.2717659374 0)
(-0.1197055029 -0.3749427619 0)
(-0.121101517 -0.4483659434 0)
(-0.08899521004 -0.4242186501 0)
(-0.01849305747 -0.2116672073 0)
(-0.005572351466 0.08657425175 0)
(-0.02708916942 0.179587621 0)
(-0.03932859049 0.2208890461 0)
(-0.04088985969 0.2321886292 0)
(-0.03276888884 0.2278103139 0)
(-0.01814760825 0.2154612707 0)
(6.561349983e-05 0.1987199636 0)
(0.01950773422 0.1787774676 0)
(0.03815144297 0.1554579931 0)
(0.05411538963 0.1277947071 0)
(0.06553478889 0.09432636677 0)
(0.07048853319 0.05321283992 0)
(0.06699214096 0.002234416384 0)
(0.05312257558 -0.06127868732 0)
(0.02748170155 -0.140373337 0)
(-0.009313717512 -0.2374088601 0)
(-0.05120567625 -0.3490919373 0)
(-0.08311514573 -0.4515163644 0)
(-0.08342437295 -0.4710814848 0)
(-0.02311276804 -0.2666951592 0)
(-0.009892208327 0.108713851 0)
(-0.04294773468 0.1995999688 0)
(-0.05213357083 0.2257819184 0)
(-0.04162882543 0.2233396883 0)
(-0.01763951631 0.2096335243 0)
(0.01356285416 0.1918808494 0)
(0.04780004527 0.1727737358 0)
(0.08223917831 0.1528760031 0)
(0.1147147725 0.1316783646 0)
(0.1433240396 0.1081166884 0)
(0.1661640286 0.08080120958 0)
(0.1811581546 0.04806854691 0)
(0.1859358869 0.007911404375 0)
(0.1777935509 -0.04227314549 0)
(0.1537839731 -0.1061690729 0)
(0.1115329758 -0.1890740318 0)
(0.05234900513 -0.2959641233 0)
(-0.01249579637 -0.4177142106 0)
(-0.05674182967 -0.4889272789 0)
(-0.02465399414 -0.3240189622 0)
(-0.01780999249 0.1516736047 0)
(-0.06128314328 0.2236386957 0)
(-0.05222537698 0.2176852914 0)
(-0.014275582 0.1949812838 0)
(0.0355444528 0.1711175322 0)
(0.08878382565 0.1491398703 0)
(0.1414544059 0.1294433065 0)
(0.1912678087 0.1114353599 0)
(0.2366261224 0.09407753088 0)
(0.2761278259 0.07618905532 0)
(0.3082411797 0.05653644274 0)
(0.3310973995 0.03379626172 0)
(0.3423181355 0.006451813236 0)
(0.3389086843 -0.02748012594 0)
(0.3170621793 -0.07115949575 0)
(0.2721955626 -0.1305239814 0)
(0.2001128373 -0.2164818571 0)
(0.1029808824 -0.3383469709 0)
(0.00435529284 -0.4567789619 0)
(-0.01596283345 -0.3693152388 0)
(-0.02422174764 0.2082697045 0)
(-0.03791171517 0.2303613508 0)
(0.03728169071 0.1765404474 0)
(0.1250774547 0.1368690169 0)
(0.2058688758 0.1090812305 0)
(0.2780699288 0.08824033174 0)
(0.3423434789 0.07214531909 0)
(0.3989741906 0.05920686509 0)
(0.4480076071 0.04804384343 0)
(0.4892117429 0.03752459128 0)
(0.5219127111 0.02670856278 0)
(0.5448767911 0.01474832202 0)
(0.556221844 0.0007709648548 0)
(0.5532963375 -0.01629531043 0)
(0.532286268 -0.03828917992 0)
(0.4877272692 -0.06915086865 0)
(0.4111312564 -0.1190997578 0)
(0.2908799872 -0.2093513667 0)
(0.1331281511 -0.3382886384 0)
(0.03877238228 -0.3403634997 0)
(0.241886815 0.1091337286 0)
(0.3134578479 0.09711832389 0)
(0.4443243107 0.05696782088 0)
(0.5496361314 0.03510710932 0)
(0.6240728289 0.02373653065 0)
(0.6796233056 0.01670642242 0)
(0.7235069193 0.01197684649 0)
(0.7588197485 0.008691523793 0)
(0.7871111523 0.006253479534 0)
(0.8091785597 0.004231201354 0)
(0.825200227 0.002330118886 0)
(0.834806207 0.0003424638748 0)
(0.8371343982 -0.001908152529 0)
(0.8307654471 -0.004589846707 0)
(0.8133974996 -0.008028106979 0)
(0.7811381918 -0.01288515029 0)
(0.7256948546 -0.02123042665 0)
(0.6298650859 -0.03809354803 0)
(0.4592687224 -0.08555042454 0)
(0.3048937604 -0.1256977565 0)
)
;

boundaryField
{
    movingWall
    {
        type            fixedValue;
        value           uniform (1 0 0);
    }
    fixedWalls
    {
        type            fixedValue;
        value           uniform (0 0 0);
    }
    frontAndBack
    {
        type            empty;
    }
}


// ************************************************************************* //
