/*--------------------------------*- C++ -*----------------------------------*\
  =========                 |
  \\      /  F ield         | OpenFOAM: The Open Source CFD Toolbox
   \\    /   O peration     | Website:  https://openfoam.org
    \\  /    A nd           | Version:  13
     \\/     M anipulation  |
\*---------------------------------------------------------------------------*/
FoamFile
{
    format      ascii;
    class       volVectorField;
    location    "42";
    object      U_0;
}
// * * * * * * * * * * * * * * * * * * * * * * * * * * * * * * * * * * * * * //

dimensions      [0 1 -1 0 0 0 0];

internalField   nonuniform List<vector> 
400
(
(1.100541943e-05 -3.783221463e-05 0)
(-0.0006660957215 0.0004130426119 -1.551243252e-23)
(-0.002185374399 0.0009203935933 0)
(-0.00404783265 0.001312781094 0)
(-0.005971868465 0.001535066266 6.845577886e-25)
(-0.007762783548 0.00156984832 4.150878634e-24)
(-0.009284545367 0.001423563619 -7.373348816e-24)
(-0.01043594139 0.001119722797 7.530780587e-24)
(-0.01113681442 0.0006960820018 -2.095378699e-25)
(-0.01132711179 0.0002030774435 -3.994658673e-24)
(-0.01097177308 -0.0003002332018 5.80362397e-24)
(-0.01007232822 -0.000747515792 -5.929582272e-23)
(-0.008679880072 -0.001075562258 -6.552708688e-23)
(-0.006902852679 -0.001233044291 -7.784319571e-23)
(-0.004910737625 -0.001192638754 4.573587932e-24)
(-0.002927231508 -0.000961920824 -4.137929174e-24)
(-0.001205298931 -0.0005912120578 -1.998753264e-22)
(-1.906839837e-05 -0.0001698831972 0)
(0.0005181540024 0.00017208547 1.509557939e-25)
(0.0002227513772 0.0003059788858 -2.552288021e-24)
(-0.0002633630909 0.0008289695013 1.383021805e-25)
(-0.002703305265 0.003383841982 1.56103944e-23)
(-0.006907276382 0.005604501137 1.555253345e-25)
(-0.01195231926 0.007008207254 -8.49557707e-25)
(-0.0171350445 0.007553776169 1.162162403e-24)
(-0.02197535523 0.007294200468 1.306896194e-23)
(-0.02611076196 0.006321895196 1.388301922e-24)
(-0.02926564806 0.004754193725 -7.282499138e-24)
(-0.0312267302 0.002737151807 1.015277253e-23)
(-0.0318420095 0.0004524056007 4.510005134e-24)
(-0.03102761409 -0.001884144599 -6.318896792e-24)
(-0.02879316625 -0.004023029009 2.961710033e-24)
(-0.02527138397 -0.005708353817 3.895546945e-23)
(-0.02073194939 -0.00670740906 -1.954771938e-24)
(-0.01558962689 -0.006854140287 3.754487142e-24)
(-0.01038513429 -0.006097465193 -9.741009032e-23)
(-0.005730272237 -0.004546187931 9.637668531e-23)
(-0.002233366921 -0.002507420422 -3.961196484e-25)
(-0.0001817751852 -0.0005023732136 4.061098582e-25)
(8.343544564e-05 0.0006099253764 0)
(-0.0004188233574 0.002935079782 -2.910445052e-25)
(-0.004647874895 0.008804015788 1.702097314e-23)
(-0.01137196079 0.01324042458 -8.283096518e-24)
(-0.01932729137 0.01579204124 -2.075359208e-25)
(-0.02747411725 0.01653000018 2.038823739e-25)
(-0.03511778836 0.01564441667 6.816536809e-27)
(-0.04171344829 0.01335997634 -1.220796457e-24)
(-0.04683571742 0.009919771702 -4.551445899e-25)
(-0.05014988953 0.005602433834 -1.063097787e-23)
(-0.0514123191 0.0007444207788 0)
(-0.0504779324 -0.004241780687 0)
(-0.04733706261 -0.008887187399 2.671017014e-23)
(-0.04215927903 -0.01268176966 2.813025507e-23)
(-0.03531437441 -0.0151360518 -1.646168575e-24)
(-0.02738996295 -0.01586189565 4.845888068e-23)
(-0.01917005928 -0.01467334198 9.419311372e-23)
(-0.01156090762 -0.01169360436 3.975753848e-23)
(-0.00546541199 -0.007450743665 4.142002379e-25)
(-0.001451099453 -0.002936043959 1.073712218e-25)
(-9.072714456e-05 0.0002258765544 0)
(-0.0005024629837 0.006045350198 -4.248943197e-23)
(-0.006402739931 0.01637075603 -1.692320565e-23)
(-0.015535025 0.02355933663 8.209937415e-24)
(-0.02627912134 0.02744162702 0)
(-0.0372874682 0.02832102232 0)
(-0.04769037508 0.0265877255 0)
(-0.05679663029 0.02263120325 -4.467627902e-26)
(-0.0640538403 0.01683609277 -2.136610216e-24)
(-0.06901081514 0.009622183773 0)
(-0.07130827905 0.001491050189 1.635452607e-24)
(-0.07070853558 -0.006936503862 2.802779385e-25)
(-0.06713039445 -0.01493018866 -2.810627102e-25)
(-0.06069905638 -0.02166728206 0)
(-0.05180750571 -0.02631605817 4.133291592e-23)
(-0.04114991715 -0.02816070931 -4.681600287e-23)
(-0.02971970255 -0.02677372274 -2.761972531e-23)
(-0.01873716691 -0.02221530539 -3.96090041e-23)
(-0.009488028389 -0.01521922194 7.795927929e-25)
(-0.002976879955 -0.007298194778 9.790297799e-23)
(-0.0002318796916 -0.0008661682485 0)
(-0.0005316130201 0.01009501618 4.269604427e-23)
(-0.007983592706 0.02595219564 4.785242128e-25)
(-0.01939687496 0.03642882887 -4.675948762e-25)
(-0.03282382513 0.04185520809 0)
(-0.04664689086 0.04289485345 7.78277608e-25)
(-0.05985229749 0.04020074133 -7.674865059e-25)
(-0.07163291439 0.03434741727 3.672237568e-23)
(-0.08132751282 0.02585664102 1.848161963e-23)
(-0.08836601088 0.01527298338 6.238731451e-24)
(-0.09225469535 0.003246146882 -1.637357932e-24)
(-0.09260379771 -0.009407832468 0)
(-0.08917555487 -0.02167478021 4.370644129e-25)
(-0.08195979232 -0.03236745068 1.009018199e-23)
(-0.07126885433 -0.04021250172 -4.349324802e-23)
(-0.05782018822 -0.04402046384 1.932915074e-24)
(-0.04278582972 -0.04294829406 4.217331517e-23)
(-0.02775450326 -0.03683346957 -3.841875325e-25)
(-0.01455062303 -0.02652720985 0)
(-0.004859462271 -0.014084545 5.436540533e-23)
(-0.0003641482574 -0.002846953535 -2.565070994e-22)
(-0.0005272211515 0.0149992776 9.841437803e-23)
(-0.009377925476 0.03739022322 -4.907687996e-25)
(-0.02288182777 0.0517022304 0)
(-0.03883043549 0.05894183175 0)
(-0.05538656826 0.06025574687 -8.732077363e-23)
(-0.07142876749 0.05661901125 -8.499046436e-23)
(-0.08606654234 0.04880168819 -4.067487796e-23)
(-0.09855086072 0.03743980537 -1.504343252e-23)
(-0.1081945317 0.02315983966 -5.368786462e-24)
(-0.1143444732 0.006709679224 -8.174923359e-24)
(-0.1164046209 -0.01093292148 6.601058459e-24)
(-0.1138937398 -0.02848945022 8.826603184e-24)
(-0.1065486977 -0.04437046228 -1.892319972e-23)
(-0.09446804019 -0.05675333742 4.607360159e-24)
(-0.07826856877 -0.06378298653 0)
(-0.05922895414 -0.06393495416 -1.572912164e-23)
(-0.03933981875 -0.05653816276 -2.427847403e-26)
(-0.02114188786 -0.04235809116 0)
(-0.007318702608 -0.02398229418 -1.520640119e-22)
(-0.0005216164137 -0.005925545112 6.056256119e-22)
(-0.0004990823522 0.02064574572 -9.774390708e-23)
(-0.01052951018 0.05045438202 2.831974673e-22)
(-0.02582957478 0.06912511737 1.526856278e-22)
(-0.04402138342 0.07849257944 3.619268693e-24)
(-0.06310739215 0.08029476444 -7.319351595e-23)
(-0.08190405127 0.07588042938 9.043499653e-23)
(-0.09947763716 0.06621690705 -3.590203699e-24)
(-0.1150227379 0.05201695059 -1.729163518e-24)
(-0.1277519181 0.03392358478 2.524150542e-24)
(-0.1368472599 0.01270233186 7.382561941e-24)
(-0.1414710517 -0.01058782315 -6.500809022e-24)
(-0.1408248174 -0.03446024344 -9.788017093e-24)
(-0.1342745961 -0.05692771674 -3.261732534e-23)
(-0.1215450234 -0.07553316181 -3.661446414e-23)
(-0.1029672653 -0.08754260525 5.645869055e-25)
(-0.07976369871 -0.09039209625 0)
(-0.05426682452 -0.08244513703 0)
(-0.02987160915 -0.0639773683 -2.906054779e-24)
(-0.01066285133 -0.03798794716 2.97050379e-24)
(-0.0007350936165 -0.01050089502 1.027872971e-22)
(-0.0004479165372 0.02687251104 0)
(-0.01134923243 0.06480757533 2.001983311e-22)
(-0.02801599715 0.08829617252 8.962059762e-23)
(-0.04799857382 0.1001234946 0)
(-0.06920602035 0.1027076553 1.569880825e-22)
(-0.09044373246 0.09781578623 0)
(-0.1107831688 0.08661103042 -1.428387942e-22)
(-0.1294093772 0.06983950371 6.515554842e-24)
(-0.1454771645 0.04808232212 0)
(-0.1580351822 0.0220175559 0)
(-0.1660133462 -0.007334439544 -1.374408874e-24)
(-0.1682671561 -0.03838839705 -9.316762468e-25)
(-0.1637064699 -0.06883975821 1.491978072e-22)
(-0.1515208764 -0.09558275711 -4.704629382e-23)
(-0.1315134556 -0.1148298653 -2.56096733e-24)
(-0.1045596076 -0.1225703406 1.534723413e-24)
(-0.07309349886 -0.1155517962 -1.558932572e-24)
(-0.04135021478 -0.09283115546 0)
(-0.01525230269 -0.05740767636 3.203808955e-24)
(-0.001044309043 -0.01714714488 -1.012913302e-21)
(-0.0003744663474 0.03346304467 0)
(-0.01175006048 0.07998918689 -1.128288576e-22)
(-0.02920707941 0.1086390941 -6.191146006e-22)
(-0.05031745052 0.1232233989 -3.7553051e-22)
(-0.07296317485 0.1269097032 0)
(-0.09598960256 0.1219255637 4.119455742e-22)
(-0.1185273492 0.1096348641 1.260924648e-22)
(-0.1398146433 0.09078245866 -5.581833631e-24)
(-0.1590221567 0.06581393171 5.554206554e-24)
(-0.1751461022 0.03520881115 0)
(-0.1869560003 -0.0001967468782 2.912129387e-23)
(-0.1930172665 -0.03889754302 4.695836216e-24)
(-0.1917809927 -0.07843888487 -1.076807966e-22)
(-0.1817874447 -0.1151865373 8.004204528e-23)
(-0.1620570444 -0.144259946 -2.419744847e-22)
(-0.1327062007 -0.1598548625 0)
(-0.09577888189 -0.1563112883 0)
(-0.05601633063 -0.1302981081 0)
(-0.02147859132 -0.08381135097 0)
(-0.001500384567 -0.02665516299 5.572112707e-22)
(-0.0002873898492 0.04016077719 0)
(-0.01169359608 0.09543611463 -3.493014931e-22)
(-0.02924438281 0.1294073623 8.932796878e-22)
(-0.05060947283 0.1469299164 3.61717746e-22)
(-0.07370082651 0.1519748669 0)
(-0.09745151145 0.1472757957 -3.862553608e-22)
(-0.1211069841 0.1344191946 -3.174429909e-23)
(-0.1440324793 0.1141393317 3.333104938e-22)
(-0.1655143246 0.08670006625 1.769474656e-22)
(-0.1846248535 0.05229123522 -4.060151566e-23)
(-0.2001325825 0.0114171623 1.656821956e-23)
(-0.2104622456 -0.03471424103 -8.265245744e-24)
(-0.2137208539 -0.08376563561 3.371857659e-22)
(-0.2078215506 -0.1318756344 0)
(-0.1908238541 -0.1732756133 2.420913873e-22)
(-0.161633574 -0.200259339 5.77477203e-24)
(-0.1211662691 -0.2040121703 -5.860890962e-24)
(-0.07384989795 -0.1772119951 1.548446136e-22)
(-0.0297178682 -0.1188642323 -5.435454703e-24)
(-0.002179545102 -0.04005398732 0)
(-0.0002117199528 0.04671640009 0)
(-0.01125001086 0.1105498122 0)
(-0.02815624439 0.1497354997 -5.022755695e-22)
(-0.04874479282 0.1701517598 -1.88099747e-23)
(-0.07100086615 0.1766257141 2.03837831e-23)
(-0.09399451478 0.1724526507 -2.014310811e-23)
(-0.1171434299 0.1594870984 -2.316883513e-23)
(-0.1400179504 0.1384805081 -3.029823484e-22)
(-0.1621328892 0.1095160716 6.698614702e-23)
(-0.1827959038 0.07245186994 4.513177332e-23)
(-0.2009835558 0.02734928891 -4.577719867e-23)
(-0.2152270265 -0.02508697699 0)
(-0.2235562214 -0.0829835129 -7.839678484e-23)
(-0.2234632198 -0.1427257324 0)
(-0.2120679434 -0.1981820875 -3.739561872e-22)
(-0.186743455 -0.240077369 5.244953266e-22)
(-0.1464438305 -0.2560773408 0)
(-0.09394567729 -0.2331209501 -1.493992284e-22)
(-0.04022000988 -0.1639613657 1.937548742e-22)
(-0.003201100238 -0.0586106313 -3.411528305e-22)
(-0.0002015410307 0.05297585093 0)
(-0.01067261891 0.1248172385 9.182869669e-22)
(-0.02628446675 0.1687424576 -2.440685242e-23)
(-0.04501107803 0.1916455135 9.193338284e-22)
(-0.06494597494 0.1992921048 -2.51208621e-23)
(-0.08536628537 0.1956104312 2.83884437e-23)
(-0.105930565 0.1827886839 -2.812930429e-23)
(-0.1264924189 0.1616583506 -1.660918132e-23)
(-0.1468996849 0.1321762299 -5.260229529e-22)
(-0.1668458158 0.09389646643 -8.906629096e-24)
(-0.1857303025 0.04640576327 9.660196274e-24)
(-0.2024781687 -0.01023784702 3.313077991e-22)
(-0.2154154615 -0.07499820281 -5.820740207e-22)
(-0.2220209718 -0.1450311833 0)
(-0.2188032106 -0.2146760613 8.887323487e-22)
(-0.2016257527 -0.2740016419 -4.940885957e-22)
(-0.1668639194 -0.3075811954 -1.572222898e-23)
(-0.1140220094 -0.2953811909 0)
(-0.05288482017 -0.2195802575 -1.890182469e-22)
(-0.004749188144 -0.08377277936 3.360586108e-22)
(-0.0003641986214 0.05902317743 1.551010446e-23)
(-0.01049573968 0.1379881498 -8.764197327e-22)
(-0.02441389559 0.1856804096 -1.157059156e-21)
(-0.04026724445 0.2101384746 -8.628987227e-22)
(-0.05630729621 0.2182348905 0)
(-0.07214856561 0.2146190264 3.513805704e-23)
(-0.08779221632 0.2018791952 -7.294867474e-23)
(-0.1034562793 0.1810005608 5.867885436e-23)
(-0.1193983875 0.1518997242 3.021367196e-22)
(-0.135793155 0.1139150572 -1.128195904e-23)
(-0.1526082325 0.06621424991 0)
(-0.1694521381 0.008177203979 -3.603930066e-22)
(-0.1852760605 -0.06015987629 7.515669024e-22)
(-0.1980448526 -0.1372747004 8.831704897e-22)
(-0.2043546273 -0.218926188 -5.296627492e-22)
(-0.199097762 -0.2959712906 5.162689882e-22)
(-0.1760605336 -0.3514072583 1.078232662e-23)
(-0.1300890634 -0.3584150779 -1.095547698e-23)
(-0.06688803315 -0.2843276507 -8.215343942e-23)
(-0.00708331994 -0.1169964415 0)
(-0.0009095776705 0.06540041523 -1.911487011e-23)
(-0.01167591748 0.1502816405 -1.326965681e-21)
(-0.02388882103 0.2000659553 1.094237543e-21)
(-0.03601340446 0.224421696 6.734930297e-22)
(-0.0465730876 0.2316588238 6.014632008e-22)
(-0.05577038513 0.2272393692 6.643957312e-22)
(-0.06411245754 0.2141774873 -4.45867801e-23)
(-0.07227561647 0.193649438 -3.461337449e-22)
(-0.08096972951 0.1656028318 2.152162636e-22)
(-0.09087192327 0.1292707357 0)
(-0.1025547454 0.08353082498 0)
(-0.116362216 0.02720010764 2.655397127e-22)
(-0.1321589564 -0.04062005956 8.1943265e-23)
(-0.1489252324 -0.12001283 -2.821623702e-22)
(-0.1641284288 -0.2089300681 -5.411271998e-23)
(-0.1727877626 -0.3006992497 1.301951972e-22)
(-0.1670311311 -0.3793329092 -3.400504356e-22)
(-0.1365292443 -0.413645196 -1.593855284e-23)
(-0.08018250155 -0.3538326196 8.204116584e-23)
(-0.01050762295 -0.1594130565 -6.032163427e-22)
(-0.002260498485 0.07348883496 0)
(-0.01580355695 0.1626521766 2.145874737e-21)
(-0.02665042639 0.2117904731 0)
(-0.03422339671 0.2333947265 -1.351807958e-21)
(-0.03759398565 0.237776682 6.184055435e-23)
(-0.03799685326 0.2312553517 -6.193094918e-22)
(-0.03668265986 0.2171899005 -4.7562844e-22)
(-0.03489036431 0.1968934489 8.301255234e-22)
(-0.03378838012 0.1703342383 -1.885698215e-22)
(-0.03449876549 0.1367221078 0)
(-0.03811572834 0.09479673661 0)
(-0.04564992562 0.04304286642 2.410615562e-23)
(-0.05790804445 -0.02013781153 -6.007198868e-22)
(-0.07514598696 -0.09620650122 -4.309567195e-22)
(-0.09645175139 -0.1855556163 4.637862562e-22)
(-0.118346263 -0.2853567762 -6.488735112e-22)
(-0.1332715393 -0.3838386525 9.11994601e-23)
(-0.1265350995 -0.4504358704 2.937341112e-23)
(-0.08899154112 -0.4198536366 5.660446141e-22)
(-0.01526917935 -0.2111719726 6.020796162e-22)
(-0.005180899585 0.08598045938 0)
(-0.02525550751 0.1766291186 1.465579482e-22)
(-0.03483408059 0.2205961547 -4.917144491e-23)
(-0.03640013961 0.2354859341 7.642930339e-22)
(-0.03018483145 0.2343406744 -7.005377693e-22)
(-0.01916579536 0.2241603875 4.746480613e-23)
(-0.005615151271 0.2083525839 -1.018609734e-22)
(0.008569606755 0.1881241085 -3.389888549e-22)
(0.02179886063 0.1633911269 2.062822684e-22)
(0.03262781347 0.1333242734 0)
(0.03958458423 0.0966408622 0)
(0.0411701312 0.05174056494 -2.902667717e-22)
(0.03578483691 -0.003255397206 0)
(0.02198184562 -0.07058360774 -5.512186949e-22)
(-0.001264847112 -0.15257355 -1.492377307e-23)
(-0.03310469969 -0.250594984 2.559740118e-23)
(-0.0690923589 -0.3599341509 2.203141259e-22)
(-0.09227827053 -0.457542452 4.788098854e-24)
(-0.08718089945 -0.4698129407 -5.789414726e-22)
(-0.02103127152 -0.2698972291 0)
(-0.01111631552 0.1085974972 0)
(-0.04248901895 0.1947151672 -8.848479004e-22)
(-0.04795528998 0.2258195505 -5.411039588e-22)
(-0.03919536041 0.2282135549 4.543816534e-22)
(-0.01877830407 0.2182328128 -1.709983745e-24)
(0.007664312625 0.2028220349 -4.561049393e-23)
(0.0366799326 0.1847619765 5.696681595e-22)
(0.06582998446 0.1647118214 -2.766890262e-23)
(0.09327130755 0.142312818 -2.069781568e-22)
(0.1173891593 0.1166274942 3.142213378e-23)
(0.1365461673 0.08641143933 -3.425917042e-23)
(0.1489669253 0.05017669079 -3.690594019e-23)
(0.1525275766 0.006159167464 3.205633449e-22)
(0.1449367018 -0.04796126973 6.119606076e-22)
(0.1235159779 -0.1153052904 -5.101171359e-22)
(0.08633533328 -0.2004195644 -1.616057755e-22)
(0.03199089194 -0.3067806587 1.531308571e-22)
(-0.02362123227 -0.4239837141 7.293654063e-23)
(-0.06492413083 -0.4871612784 1.913291851e-21)
(-0.02509971708 -0.329154474 2.954991732e-21)
(-0.02004680472 0.1460727401 -4.390207535e-23)
(-0.0641640626 0.2112955853 4.417380285e-23)
(-0.05070230611 0.2177300477 1.000188551e-21)
(-0.01934097418 0.2014679982 -8.270559281e-24)
(0.02414464854 0.1809076177 0)
(0.07154121967 0.1606933347 4.36372203e-23)
(0.1190703395 0.1416495493 -2.273851817e-22)
(0.164476732 0.1233181823 -9.027956837e-23)
(0.2062251146 0.1048117297 3.680734497e-23)
(0.2429643011 0.08507140119 -1.701654919e-23)
(0.2732207567 0.06296147712 3.42997035e-23)
(0.2952536098 0.03726293857 -6.592681177e-23)
(0.306697105 0.006535068494 -9.303905757e-23)
(0.3049738304 -0.03087770016 1.517044084e-22)
(0.2863936242 -0.07786290943 0)
(0.2470568078 -0.1399300367 1.505610702e-22)
(0.181092223 -0.2266299751 2.560014042e-22)
(0.09604450201 -0.3443894946 0)
(-0.00669761613 -0.4552210217 -3.675635219e-21)
(-0.01922408206 -0.3777537586 -2.892621196e-21)
(-0.02591951339 0.2276828799 -9.514204318e-22)
(-0.03998324621 0.2238216526 -1.388976404e-22)
(0.03656136899 0.1810585357 -2.335581889e-22)
(0.1090503044 0.1451059091 -1.193742137e-22)
(0.1817191192 0.1172445495 -4.295826261e-23)
(0.249009073 0.09627907641 9.783182256e-23)
(0.3100336699 0.08002510433 -1.408592318e-22)
(0.3646209328 0.06656815359 1.297175357e-22)
(0.4126252489 0.05449178916 -8.62012085e-23)
(0.4536250294 0.04270894948 1.13218884e-25)
(0.4867878719 0.03032298436 1.527741812e-23)
(0.5107451361 0.01652901869 7.997205225e-23)
(0.5236597453 0.0005365144191 -1.811123891e-22)
(0.5231798011 -0.01863373246 -1.61714622e-22)
(0.5052323418 -0.04286478954 -4.262953563e-23)
(0.465871508 -0.07633231184 0)
(0.3952696497 -0.1286089384 -1.84647797e-22)
(0.2916071047 -0.2208468098 8.148763992e-22)
(0.1197455105 -0.3525016903 1.631601679e-21)
(0.02670547256 -0.3775497979 2.17265596e-21)
(0.2142894469 0.1347447207 9.86498926e-22)
(0.2776311186 0.09870503558 0)
(0.4316592292 0.05810414817 -2.594320897e-22)
(0.5304749347 0.03846264953 -1.741666668e-22)
(0.6016965752 0.02623419119 0)
(0.6571198961 0.0183192348 -6.009092708e-23)
(0.7015213604 0.01313600852 6.378002247e-23)
(0.7376042501 0.009542126386 -1.800156698e-23)
(0.7669368416 0.006804463623 2.885974407e-23)
(0.7902106684 0.004464743881 2.315033315e-23)
(0.8074555009 0.002221319804 0)
(0.8182621353 -0.0001500750428 -2.873033031e-23)
(0.8216499714 -0.002723848345 0)
(0.8162394195 -0.005712668695 2.738150716e-23)
(0.7991333147 -0.009611382853 1.421691471e-23)
(0.7679986345 -0.01500255107 -5.799404226e-23)
(0.7106555755 -0.02502519954 -2.535661263e-22)
(0.623518398 -0.04204285407 -6.9181022e-22)
(0.423009102 -0.0918296808 0)
(0.2705674689 -0.1524021841 -2.119483824e-21)
)
;

boundaryField
{
    movingWall
    {
        type            calculated;
        value           uniform (1 0 0);
    }
    fixedWalls
    {
        type            calculated;
        value           uniform (0 0 0);
    }
    frontAndBack
    {
        type            empty;
    }
}


// ************************************************************************* //
