/*--------------------------------*- C++ -*----------------------------------*\
  =========                 |
  \\      /  F ield         | OpenFOAM: The Open Source CFD Toolbox
   \\    /   O peration     | Website:  https://openfoam.org
    \\  /    A nd           | Version:  13
     \\/     M anipulation  |
\*---------------------------------------------------------------------------*/
FoamFile
{
    format      ascii;
    class       volScalarField;
    location    "27";
    object      p;
}
// * * * * * * * * * * * * * * * * * * * * * * * * * * * * * * * * * * * * * //

dimensions      [0 2 -2 0 0 0 0];

internalField   nonuniform List<scalar> 
400
(
-4.33118154e-09
-0.0005121834241
-0.001132022085
-0.001604779423
-0.001813043928
-0.001709248911
-0.001271109297
-0.0004900943272
0.000622800783
0.00202293554
0.003617896871
0.005261468201
0.006763901056
0.007921907668
0.008566654222
0.008618141563
0.008127689852
0.007292714341
0.006432823799
0.005890750038
0.0005184057712
-1.140332224e-05
-0.0005558385355
-0.000931506539
-0.001083326554
-0.0009854766084
-0.0006190768443
2.834922042e-05
0.0009547539114
0.002129793206
0.003480884353
0.004886517279
0.006183170179
0.007192060096
0.007762552457
0.007822046629
0.007413137319
0.006699458979
0.005933158274
0.005380922044
0.001162417455
0.0004965995074
-7.877304657e-05
-0.0004224066017
-0.0005597623862
-0.0004981964484
-0.000224908017
0.0002796445908
0.001028636989
0.002012253419
0.003180479344
0.004432107039
0.005617688025
0.006562759016
0.007110894649
0.007175794323
0.006780429382
0.006057691021
0.005207540741
0.004487041793
0.001620326445
0.0007607758597
7.356791806e-05
-0.0003116316286
-0.0004927170195
-0.0005091221701
-0.0003522787593
8.611559103e-06
0.000607691772
0.001460768174
0.002541928123
0.003765495334
0.004982408244
0.006000047509
0.00662740937
0.006736146683
0.006311918904
0.005460944296
0.004366576628
0.003350123156
0.001647433701
0.0005908556988
-0.0002341526566
-0.0007028197813
-0.0009747217482
-0.001114279272
-0.001111532448
-0.0009186688457
-0.000474132677
0.0002704024534
0.001319311416
0.002605911945
0.003978273057
0.005212720733
0.006059452454
0.006316143397
0.005901772039
0.004884128768
0.003450319891
0.002043480939
0.001041948092
-0.0001917483629
-0.001157058319
-0.001736959237
-0.002143808837
-0.002459557101
-0.002666869783
-0.002694893431
-0.002447135362
-0.001832581505
-0.0008038858884
0.0006052678724
0.002248169145
0.003867004904
0.005131466517
0.005724933689
0.005451220548
0.004303077371
0.002469894783
0.0005751168763
-0.0003669206655
-0.001747545249
-0.002847797824
-0.003564092899
-0.004154259352
-0.004712170852
-0.005209044344
-0.005546260565
-0.00558451914
-0.005176550221
-0.004211038374
-0.002666613393
-0.0006572885649
0.001535638279
0.003486437943
0.004715750268
0.004837526103
0.003693794898
0.001439435891
-0.001054711057
-0.002713310483
-0.004204502667
-0.005430838683
-0.0063086522
-0.007135590334
-0.008014926449
-0.008905815242
-0.009680125761
-0.01014942727
-0.01009561688
-0.009317961384
-0.007698655716
-0.005278736794
-0.002326942197
0.0006405515556
0.002934991898
0.003877947108
0.003028042095
0.0004063894629
-0.002801278815
-0.006083867599
-0.007644564078
-0.008983204652
-0.01004240377
-0.01115667334
-0.0124405023
-0.01384507822
-0.01521558148
-0.01631208006
-0.01683322364
-0.01646099851
-0.01493553563
-0.01216084691
-0.00832587237
-0.003994315462
-8.560594901e-05
0.002313049647
0.002275231552
-0.0005126809749
-0.004515232691
-0.01050830771
-0.01209310307
-0.01351847975
-0.01475894532
-0.01618832793
-0.0179402063
-0.01996733763
-0.02209639168
-0.02403954335
-0.02540653125
-0.02574044241
-0.02459413862
-0.0216615724
-0.0169525542
-0.01098115737
-0.004857457646
-0.0001672957958
0.001420014172
-0.001083363872
-0.005856850419
-0.01595862251
-0.01751654759
-0.01897759601
-0.02035312991
-0.02206971794
-0.02429649512
-0.02700254989
-0.03000842998
-0.03298770383
-0.0354646177
-0.03683496321
-0.03643375293
-0.03368120112
-0.02829431106
-0.02058827395
-0.01173003891
-0.003801480108
0.0005300698803
-0.0008764901294
-0.006165326109
-0.02236614844
-0.02383523201
-0.02523220587
-0.02661247304
-0.02848988371
-0.03109757887
-0.03443918244
-0.03834170609
-0.04245083935
-0.04621529455
-0.0488907694
-0.04959163138
-0.04741781454
-0.04171289833
-0.03242158826
-0.02054007369
-0.008487285725
-7.172368482e-05
0.0008671695212
-0.004261196753
-0.02966865692
-0.03095809047
-0.032103453
-0.03322428864
-0.03499344172
-0.03775112334
-0.04155231144
-0.04623585334
-0.05142338051
-0.05649598911
-0.06058271567
-0.06259127959
-0.06131698054
-0.05568145669
-0.04513034261
-0.03022610926
-0.0133979987
0.0004986460074
0.005475679124
0.0018390175
-0.03791026902
-0.038845586
-0.03939229374
-0.03979468592
-0.04101190806
-0.04354396671
-0.04750128002
-0.05272188663
-0.058789759
-0.06501243949
-0.07039946606
-0.07367458659
-0.07335980342
-0.06797864819
-0.05643529765
-0.03865773731
-0.01666865914
0.004038284725
0.01518960286
0.01528467001
-0.04744337906
-0.04761194452
-0.04691324625
-0.04587126861
-0.04591702217
-0.04774286314
-0.05148250981
-0.05692950451
-0.06359036662
-0.07067057348
-0.07704733437
-0.0812675244
-0.08160935504
-0.07625095402
-0.06360266432
-0.04290200701
-0.01541018239
0.01342093405
0.03341230634
0.04061378535
-0.05927543701
-0.05769472131
-0.05454066206
-0.05098135337
-0.04910716016
-0.04973212011
-0.05290728651
-0.05829678573
-0.06526164503
-0.07285515046
-0.07978683528
-0.08440816945
-0.08475521411
-0.07869047592
-0.06419947596
-0.03990059799
-0.006137818013
0.03242233619
0.06456113568
0.08329970835
-0.07565630494
-0.07017029216
-0.06224703455
-0.05466986061
-0.05010203619
-0.04913599837
-0.05152559435
-0.05667757557
-0.06372555399
-0.07151019641
-0.07853154737
-0.08291420071
-0.08242666021
-0.07458883986
-0.05694473093
-0.02751484768
0.01430510771
0.0652753223
0.1141995334
0.1499712289
-0.1037146612
-0.08755566116
-0.06975309133
-0.05615693963
-0.04827419646
-0.04557469281
-0.04719159316
-0.05212050411
-0.05917638063
-0.06695080429
-0.07372462484
-0.07739012557
-0.07543980202
-0.06499574887
-0.04300889468
-0.006597160923
0.04624919995
0.1148821381
0.1911200434
0.2579162791
-0.1756144404
-0.1145905604
-0.07350865862
-0.05190115178
-0.04120722374
-0.03749578213
-0.03901436823
-0.04425239833
-0.05165325635
-0.05959797335
-0.06623963299
-0.06931756823
-0.06613117081
-0.05346172717
-0.02755234094
0.01596851461
0.08213672995
0.1767566896
0.3047796442
0.4522424122
-0.3554883878
-0.1549634605
-0.07029601373
-0.04277435955
-0.03136626603
-0.02752852799
-0.02954272714
-0.03553845909
-0.04362109964
-0.05203148632
-0.05888685696
-0.06193219743
-0.05842698832
-0.04501661061
-0.01735218768
0.03048795228
0.1079656289
0.2328583646
0.434314952
0.7354243935
)
;

boundaryField
{
    movingWall
    {
        type            zeroGradient;
    }
    fixedWalls
    {
        type            zeroGradient;
    }
    frontAndBack
    {
        type            empty;
    }
}


// ************************************************************************* //
