/*--------------------------------*- C++ -*----------------------------------*\
  =========                 |
  \\      /  F ield         | OpenFOAM: The Open Source CFD Toolbox
   \\    /   O peration     | Website:  https://openfoam.org
    \\  /    A nd           | Version:  13
     \\/     M anipulation  |
\*---------------------------------------------------------------------------*/
FoamFile
{
    format      ascii;
    class       scalarField;
    location    "27";
    object      p_all;
}
// * * * * * * * * * * * * * * * * * * * * * * * * * * * * * * * * * * * * * //


400
(
7.943166021e-07
-0.0005465779245
-0.000888616105
-0.001016082271
-0.0009372108232
-0.000684361865
-0.0002950888132
0.0001946408307
0.0007483065315
0.001325402796
0.001880263284
0.002360024401
0.00270930397
0.002875029976
0.002815686748
0.002513280221
0.00198826606
0.001297768798
0.0006388593766
4.296943068e-05
0.0005890485168
7.766657888e-06
-0.0003559706951
-0.0004982843331
-0.0004676013471
-0.0002905119305
3.584242137e-06
0.0003854043129
0.0008235643525
0.001280816962
0.001717309058
0.002081870406
0.002324113191
0.002396668883
0.00226567994
0.001922389151
0.001393548323
0.000744203597
0.0001465768906
-0.0005160970173
0.0009532889431
0.0003089097447
-9.234409202e-05
-0.0002386822676
-0.000232551783
-0.0001040222228
0.0001228492181
0.0004267521526
0.0007839505809
0.001162455738
0.001530475821
0.00183389175
0.002022768085
0.002048370586
0.001875557462
0.001494516226
0.0009292345741
0.000236273087
-0.000462180094
-0.001299135527
0.0009769822805
0.0002588512784
-0.0001913766029
-0.0003436733725
-0.0003529425538
-0.0002559564894
-7.334382045e-05
0.0001822921351
0.0004973909942
0.0008517076564
0.001204061162
0.001511535735
0.001713343269
0.001748953936
0.001569493477
0.001151569966
0.0005070050119
-0.0003174615553
-0.001232777599
-0.002383552612
0.0004813212718
-0.0002841446604
-0.0007630168213
-0.000914695073
-0.0009357093708
-0.0008672802584
-0.0007243649247
-0.0005074080951
-0.0002161311367
0.0001402066818
0.0005311670515
0.0009084758513
0.001200916122
0.001327610813
0.001212148718
0.0008013300239
8.110159122e-05
-0.0009164760357
-0.002126441279
-0.00365491404
-0.0006854855839
-0.001466269303
-0.00195530067
-0.002106326765
-0.002149073705
-0.002125696888
-0.002041294508
-0.001878650877
-0.00161651049
-0.001244449213
-0.000778009298
-0.0002617345838
0.000221752739
0.000562627165
0.0006389828511
0.0003426891905
-0.000391852144
-0.001562867906
-0.003133629103
-0.005140835146
-0.002660896755
-0.003422603422
-0.003914464418
-0.004079825837
-0.004177159136
-0.004246168153
-0.004277143046
-0.004228050328
-0.004046415181
-0.003688436111
-0.003139561887
-0.002425549385
-0.001632299893
-0.0009022327626
-0.0004236276917
-0.0003974931556
-0.0009870326904
-0.002259355738
-0.004231489709
-0.006827032974
-0.005554039292
-0.006268946307
-0.006767221723
-0.006981152198
-0.007194508171
-0.007442355831
-0.007696003019
-0.007881011707
-0.007900930506
-0.007659338373
-0.007086051846
-0.006158187136
-0.004942442755
-0.003603578137
-0.002412667086
-0.001713267969
-0.001841964008
-0.003013771779
-0.00536718326
-0.008660940105
-0.009434191134
-0.01008051151
-0.01059735808
-0.01090956967
-0.01132492999
-0.01187475636
-0.01251006389
-0.01311836681
-0.01354646214
-0.01362198449
-0.01318107913
-0.01211971906
-0.0104266393
-0.008255203067
-0.005955017687
-0.004060638087
-0.0031889365
-0.003841850141
-0.006425231966
-0.01049038433
-0.01431586322
-0.01487485579
-0.0154218229
-0.01588102659
-0.01658880635
-0.01757886583
-0.01878564468
-0.02005769244
-0.02117610297
-0.02187209695
-0.02185584039
-0.02087071761
-0.01877039941
-0.01561862084
-0.01179365904
-0.008035992372
-0.00535861312
-0.004758910128
-0.007179933733
-0.01197798762
-0.02015326431
-0.02060350793
-0.02117368396
-0.02179564504
-0.0228509309
-0.0243891002
-0.02633787279
-0.02851216357
-0.03062601975
-0.03230188788
-0.03309360553
-0.03253904913
-0.03028085626
-0.02617711558
-0.02052339365
-0.01420251675
-0.008690215071
-0.005725351071
-0.007218023343
-0.01246515974
-0.02685519783
-0.02716097824
-0.02770140845
-0.02842178503
-0.02978791348
-0.03188775648
-0.03465743583
-0.03788809517
-0.04123229135
-0.044203352
-0.04618639285
-0.04647704766
-0.04446138141
-0.03965839633
-0.03211947227
-0.02269729871
-0.01326520905
-0.006484655411
-0.005807397812
-0.01076400697
-0.03433348877
-0.03441692371
-0.03478826169
-0.03540331194
-0.03689055717
-0.03940861706
-0.04291855419
-0.04719608547
-0.05183839343
-0.05625665314
-0.05967799179
-0.06118917127
-0.05977785145
-0.05465417434
-0.04543954198
-0.03269828012
-0.01845175765
-0.006244653151
-0.001672763341
-0.004872437362
-0.04260858831
-0.04227819314
-0.04219442136
-0.04229471943
-0.04351241013
-0.04611502275
-0.05009814061
-0.05521881725
-0.06101342451
-0.06679449711
-0.07163844646
-0.07441139125
-0.07383102777
-0.06867343927
-0.05807059595
-0.04206055382
-0.0224388403
-0.003256076166
0.007348153788
0.008342493126
-0.05200908269
-0.05075977877
-0.04967662586
-0.04857772023
-0.04892554474
-0.05111890088
-0.0551715063
-0.06079477314
-0.06743401684
-0.07428836218
-0.08028126624
-0.08407479027
-0.08412932732
-0.07883632833
-0.06684169805
-0.04752238664
-0.02212647309
0.005502748717
0.02471631058
0.03352829526
-0.06365470888
-0.06018805416
-0.05709624184
-0.05376331148
-0.05246443308
-0.0536790389
-0.05736378609
-0.0631369283
-0.07026132954
-0.07779977947
-0.08449150986
-0.08878481431
-0.0888972718
-0.08283867498
-0.06884988496
-0.04561999299
-0.01375073213
0.02441769008
0.05554042778
0.0773566361
-0.08018533588
-0.07107394435
-0.06412026163
-0.05716460884
-0.05343076434
-0.05321479176
-0.05625845902
-0.06191339522
-0.06925847537
-0.07711644996
-0.08401175686
-0.08815131059
-0.08747986828
-0.07965576068
-0.06247875492
-0.03404977959
0.005565487523
0.05859480861
0.1058237824
0.1480684774
-0.1105068279
-0.08585419109
-0.07160623677
-0.05897132536
-0.05191373334
-0.04988341727
-0.05210313034
-0.05750918581
-0.06485993781
-0.07270879753
-0.0793402549
-0.08271365026
-0.08051953456
-0.06988657889
-0.04823179413
-0.01272194683
0.03823675677
0.1071327351
0.1779792957
0.2564771257
-0.1684371029
-0.09990844424
-0.07500863697
-0.05479832037
-0.04461946074
-0.04158592686
-0.04371845547
-0.0493822799
-0.05701785642
-0.06497139361
-0.07136228648
-0.07398063838
-0.07012955358
-0.05701320068
-0.03102795055
0.0119299718
0.07560008509
0.166404831
0.276162604
0.4377048801
-0.3984283892
-0.1380996161
-0.07497082927
-0.04708891387
-0.03354998735
-0.03003072978
-0.0328028344
-0.03926554075
-0.04755924669
-0.05593975885
-0.06250078739
-0.06502992297
-0.06099527003
-0.04696920632
-0.01875613514
0.02993613155
0.1069563083
0.2334278639
0.4198808101
0.7800239993
)


// ************************************************************************* //
