/*--------------------------------*- C++ -*----------------------------------*\
  =========                 |
  \\      /  F ield         | OpenFOAM: The Open Source CFD Toolbox
   \\    /   O peration     | Website:  https://openfoam.org
    \\  /    A nd           | Version:  13
     \\/     M anipulation  |
\*---------------------------------------------------------------------------*/
FoamFile
{
    format      ascii;
    class       surfaceScalarField;
    location    "27";
    object      phi;
}
// * * * * * * * * * * * * * * * * * * * * * * * * * * * * * * * * * * * * * //

dimensions      [0 3 -1 0 0 0 0];

internalField   nonuniform List<scalar> 
760
(
-1.322301071e-05
1.321426961e-05
-7.201893163e-05
5.8795909e-05
-0.0001620711214
9.005221486e-05
-0.0002652184904
0.000103147563
-0.0003682355966
0.0001030172014
-0.0004614954297
9.325957463e-05
-0.0005377398402
7.624393169e-05
-0.0005912314477
5.349135244e-05
-0.0006174987409
2.626757817e-05
-0.0006135793732
-3.918683841e-06
-0.0005784513012
-3.51274662e-05
-0.0005138359762
-6.46151243e-05
-0.0004246550459
-8.918117199e-05
-0.0003192797822
-0.0001053756875
-0.0002092255277
-0.000110054533
-0.0001081401062
-0.000101085422
-2.992701944e-05
-7.82129225e-05
1.414761169e-05
-4.407449194e-05
2.190860805e-05
-7.760962358e-06
2.190859923e-05
-6.870390041e-05
8.191818387e-05
-0.0002457720704
0.0002358640387
-0.0004934637139
0.0003377435805
-0.0007722617134
0.0003819454658
-0.001050386729
0.000381142622
-0.001302977819
0.0003458513571
-0.001510571823
0.0002838383025
-0.001657837844
0.0002007569942
-0.001733165565
0.0001015943759
-0.001729273428
-7.811630577e-06
-0.001643802902
-0.0001205982793
-0.001481390587
-0.000227027122
-0.001254364293
-0.0003162068781
-0.0009832834442
-0.0003764561206
-0.0006961358201
-0.0003972020986
-0.0004257300375
-0.000371491363
-0.0002049944001
-0.0002989487017
-5.981406956e-05
-0.000189254864
-4.931440665e-07
-6.708191132e-05
2.141551993e-05
-0.0001229322103
0.0002048504348
-0.0004149633771
0.0005278954546
-0.0008086495627
0.0007314296877
-0.001247136037
0.0008204315021
-0.001684622421
0.0008186285947
-0.00208438256
0.0007456115491
-0.002416911541
0.0006163678613
-0.002658518546
0.0004423647021
-0.002790933511
0.0002340096838
-0.002802357962
3.61272558e-06
-0.002687852027
-0.0002351046067
-0.002452919094
-0.0004619604104
-0.002114138099
-0.0006549879408
-0.00170034991
-0.0007902441289
-0.001251806804
-0.0008457449955
-0.0008167365298
-0.0008065615604
-0.0004446203774
-0.0006710648887
-0.0001762318843
-0.000457643404
-3.221258432e-05
-0.0002111012479
-1.07970089e-05
-0.0001720745185
0.0003769248051
-0.0005725469249
0.0009283681157
-0.001105940629
0.001264823783
-0.001697995008
0.001412485998
-0.002290542166
0.001411175456
-0.002837188116
0.001292257006
-0.003300142439
0.001079321888
-0.003648212078
0.0007904344402
-0.003856257617
0.0004420555621
-0.003905737591
5.309295491e-05
-0.003787675252
-0.0003531668356
-0.003503961513
-0.0007456742668
-0.003071220326
-0.001087729308
-0.002522590874
-0.001338873649
-0.001907968226
-0.001460367575
-0.001290888363
-0.001423641318
-0.0007407455248
-0.001221207673
-0.0003202677977
-0.0008781211286
-7.110183202e-05
-0.0004602672367
-8.189879882e-05
-0.0002170167543
0.0005939413865
-0.0007188156172
0.001430166753
-0.001385621968
0.001931630309
-0.002127072404
0.002153936818
-0.002874306568
0.002158409909
-0.003573113764
0.001991064185
-0.004178887162
0.001685095023
-0.004653485575
0.001265032603
-0.004964097447
0.0007526673857
-0.005083918144
0.0001729137812
-0.004994930069
-0.0004421547075
-0.004691105429
-0.001049498779
-0.004183447126
-0.001595387621
-0.003504333179
-0.002017987669
-0.002710408476
-0.002254292307
-0.001881550469
-0.002252499285
-0.001113217796
-0.001989540283
-0.0005008145448
-0.001490524334
-0.0001191407036
-0.0008419410668
-0.0002010394926
-0.000257360476
0.0008513020077
-0.000851319813
0.002024125779
-0.00164225888
0.00272256913
-0.002526500327
0.003038178269
-0.003426825838
0.003058735647
-0.004283297502
0.002847536101
-0.005046111114
0.002447908724
-0.00567090626
0.001889827655
-0.006116635844
0.001198396818
-0.006345867104
0.0004021449501
-0.006327733699
-0.0004602880784
-0.006042375802
-0.001334856562
-0.005488236053
-0.002149527274
-0.00468990982
-0.002816313877
-0.0037056725
-0.003238529644
-0.002631145455
-0.00332702633
-0.001594204582
-0.003026481123
-0.0007363770987
-0.002348351766
-0.0001821181548
-0.001396199972
-0.0003831576509
-0.0002911778215
0.001142480073
-0.0009641048101
0.002697052854
-0.001864125094
0.003622589258
-0.002878087411
0.004052140392
-0.003923387512
0.004104035681
-0.004936907892
0.003861056581
-0.005865781803
0.003376782803
-0.006660885677
0.002684931637
-0.007273318331
0.001810829476
-0.007653851348
0.0007826778969
-0.007755687502
-0.0003584519833
-0.007539678148
-0.001550865907
-0.006983928928
-0.002705276429
-0.006095730853
-0.003704511885
-0.004925638334
-0.004408622128
-0.003579432876
-0.004673231775
-0.002220359395
-0.00438555459
-0.001050832043
-0.003517879085
-0.0002684642236
-0.002178567749
-0.000651621878
-0.0003159600576
0.001458440115
-0.001048719062
0.0034298121
-0.002034496227
0.004608366534
-0.003154849929
0.005172494051
-0.004325061479
0.005274247115
-0.005481761824
0.005017756856
-0.006571831775
0.004466852786
-0.007544011117
0.003657111079
-0.008343695671
0.002610514128
-0.00891101301
0.001349995276
-0.00918269091
-8.677409949e-05
-0.009096903187
-0.001636653656
-0.008604484048
-0.003197695559
-0.007684111711
-0.004624884177
-0.006363997155
-0.005728736631
-0.00474599053
-0.006291238358
-0.00302284845
-0.006108696644
-0.001469564643
-0.005071162869
-0.0003882399714
-0.003259892388
-0.001039861848
-0.0003291914916
0.001787631445
-0.001096428684
0.004197049348
-0.002135051421
0.005646989416
-0.003325324792
0.006362767532
-0.004583593012
0.006532515355
-0.005849301413
0.006283465212
-0.007072492159
0.005690043492
-0.008203733968
0.004788352904
-0.009187162508
0.003593942741
-0.009956795693
0.002119628545
-0.010435972
0.0003924022603
-0.01054215549
-0.00153047016
-0.01019494654
-0.003544904517
-0.009334009364
-0.005485821344
-0.007946560988
-0.007116184972
-0.006105873696
-0.008131925602
-0.004012894424
-0.008201675875
-0.002014574325
-0.00706948294
-0.0005527967997
-0.004721669883
-0.001592658642
-0.0003297907156
0.002117422114
-0.00110169361
0.00496895215
-0.002151406079
0.006696701901
-0.003361050153
0.007572411694
-0.004650807491
0.007822272787
-0.005965909628
0.007598567399
-0.007263324962
0.00698745883
-0.008500506528
0.006025534462
-0.009626949451
0.004720385688
-0.01057853915
0.00307121831
-0.01127453167
0.001088394852
-0.01161808599
-0.001186915784
-0.01150156791
-0.003661422581
-0.01082046785
-0.0061669214
-0.009502948102
-0.008433704706
-0.007560563836
-0.01007430984
-0.005160840272
-0.0106013994
-0.002696096884
-0.009534226292
-0.0007741444465
-0.006643622283
-0.002366803074
-0.0003199352055
0.002437357403
-0.001066685977
0.005715702883
-0.00208042031
0.007710436186
-0.003246806877
0.008738798266
-0.004492295912
0.009067761882
-0.005770857711
0.00887712928
-0.007050298283
0.008266899467
-0.008300523528
0.007275759739
-0.009484283784
0.005904145959
-0.01054994504
0.004136879593
-0.01142560347
0.001964053344
-0.0120141542
-0.0005983649933
-0.01219377436
-0.003481802369
-0.01182094532
-0.006539750411
-0.01075535208
-0.00949929793
-0.008913723265
-0.01191593864
-0.006370833882
-0.01314428876
-0.00349894939
-0.01240611075
-0.001063145694
-0.009079425937
-0.003429948747
-0.0003074123442
0.002744769818
-0.001006594895
0.006414885507
-0.001938366212
0.008642207506
-0.002991913371
0.009792345409
-0.004102830321
0.01017867884
-0.005237468418
0.01001176742
-0.006378650549
0.009408081672
-0.00751410998
0.008411219243
-0.008627361646
0.007017397676
-0.009689876991
0.005199394972
-0.01065317625
0.002927352644
-0.01143760046
0.0001860592703
-0.01192948374
-0.002989919042
-0.0119650097
-0.006504224398
-0.01134374777
-0.01012055983
-0.009868966335
-0.01339072005
-0.007460105886
-0.01555314919
-0.004363825287
-0.01550239133
-0.001425531141
-0.01201772004
-0.004855479867
-0.0003089337082
0.003053703521
-0.0009555828481
0.007061534742
-0.001768516322
0.009455141042
-0.002639427022
0.01066325614
-0.003518307711
0.01105755953
-0.004389776692
0.0108832364
-0.005256781045
0.01027508606
-0.006129583472
0.009284021736
-0.007017782035
0.007905596316
-0.007923405774
0.006105018779
-0.008832293922
0.003836240843
-0.009704292754
0.001058058148
-0.01045079815
-0.002243413604
-0.01092418067
-0.00603084183
-0.0108950738
-0.01014966666
-0.01006491595
-0.01422087788
-0.008157317063
-0.01746074805
-0.005167632211
-0.01849207616
-0.001854346883
-0.01533100533
-0.006709826732
-0.0003552775888
0.003408981082
-0.0009733554959
0.007679612696
-0.001646096832
0.01012788243
-0.002268766461
0.01128592582
-0.002816911178
0.01160570429
-0.003303777831
0.01137010306
-0.003759505038
0.01073081326
-0.004221028393
0.009745545112
-0.004726256657
0.008410824633
-0.00530987574
0.006688637938
-0.005996769864
0.004523135042
-0.00679190805
0.001853196399
-0.007660687904
-0.001374633697
-0.008503119635
-0.005188410055
-0.009113251699
-0.009539534556
-0.009142561019
-0.01419156853
-0.008128431729
-0.01847487732
-0.005711168477
-0.02090933939
-0.002318286031
-0.01872388776
-0.009028112749
-0.0005003859027
0.003909366993
-0.001151323628
0.008330550444
-0.001674870019
0.01065142883
-0.001981711099
0.01159276693
-0.002095762797
0.01171975604
-0.002075842149
0.01135018247
-0.001988595583
0.01064356672
-0.001901278069
0.009658227613
-0.001879057961
0.008388604542
-0.001986102317
0.006795682334
-0.002282595223
0.004819628003
-0.002818878076
0.002389479311
-0.003622265912
-0.0005712458067
-0.00466894468
-0.004141731244
-0.005834721242
-0.008373757963
-0.006807730606
-0.01321855914
-0.007016713351
-0.01826589456
-0.005716422677
-0.02220963004
-0.00273957212
-0.0217007383
-0.01176768486
-0.0008308944328
0.004740261458
-0.001604861421
0.009104517482
-0.001951032159
0.01099759959
-0.001839460311
0.01148119507
-0.001385534618
0.01126583035
-0.0007182493462
0.01068289724
4.808250179e-05
0.009877234922
0.0008162682584
0.008890041909
0.001495223097
0.007709649737
0.001998289944
0.006292615514
0.002238390114
0.004579527862
0.00212823682
0.002499632638
0.001583051716
-2.606066617e-05
0.0005449352929
-0.003103614787
-0.0009843971901
-0.006844425452
-0.002828468561
-0.01137448775
-0.004459174961
-0.01663518814
-0.004810516024
-0.02185828897
-0.002944298836
-0.02356695547
-0.01471198369
-0.001465689809
0.006205951281
-0.002379901148
0.01001872888
-0.002373492258
0.01099119077
-0.001603613611
0.01071131644
-0.0003497205489
0.01001193728
0.00116353047
0.00916964621
0.002771718135
0.008269047271
0.00434940422
0.007312355859
0.00579149402
0.006267559977
0.006997890515
0.005086219053
0.007865377863
0.003712040539
0.00828218092
0.0020828296
0.008123731467
0.0001323888011
0.007264418221
-0.002244301529
0.00558514688
-0.005165154099
0.003073820133
-0.008863160999
7.893716506e-05
-0.01364030518
-0.002445770812
-0.01933358096
-0.002601086375
-0.0234116399
-0.01731307007
-0.002365506914
0.008571458202
-0.002963822153
0.01061704412
-0.001922844451
0.00995021312
8.106465943e-05
0.008707407394
0.002534816615
0.007558185362
0.005140168091
0.00656429475
0.007719653653
0.005689561717
0.01015451492
0.004877494613
0.01234946618
0.004072608744
0.01421189962
0.003223785643
0.01564044649
0.002283493702
0.01651750727
0.001205768843
0.0166970292
-4.713310633e-05
0.01602706869
-0.001574341007
0.0143050439
-0.003443129306
0.01133279434
-0.005890911443
0.007055584768
-0.009363095605
0.002201605706
-0.0144796019
-0.001027328359
-0.02018270583
-0.01834039843
-0.002150340876
0.01072179912
-7.199464087e-05
0.008538697896
0.003741890679
0.006136327742
0.007719752264
0.004729545804
0.01156183514
0.003716102495
0.01514095988
0.002985170027
0.01839879353
0.002431728093
0.02130148519
0.00197480298
0.02381236073
0.001561733235
0.02587966416
0.001156482248
0.02743050476
0.0007326531377
0.02836467318
0.0002716004456
0.02857557452
-0.0002580344302
0.02788763287
-0.000886399355
0.02609931815
-0.001654814587
0.02290824937
-0.002699842667
0.01790695462
-0.004361800843
0.01076690005
-0.007339547321
0.002912176857
-0.01232798263
-0.01542822157
0.01072179917
0.01926049711
0.02539682485
0.03012637064
0.03384247312
0.03682764315
0.03925937126
0.04123417427
0.04279590754
0.04395238982
0.04468504298
0.04495664344
0.044698609
0.04381220964
0.04215739504
0.03945755237
0.03509575152
0.0277562042
0.01542822157
)
;

boundaryField
{
    movingWall
    {
        type            calculated;
        value           uniform 0;
    }
    fixedWalls
    {
        type            calculated;
        value           uniform 0;
    }
    frontAndBack
    {
        type            empty;
    }
}


// ************************************************************************* //
