/*--------------------------------*- C++ -*----------------------------------*\
  =========                 |
  \\      /  F ield         | OpenFOAM: The Open Source CFD Toolbox
   \\    /   O peration     | Website:  https://openfoam.org
    \\  /    A nd           | Version:  13
     \\/     M anipulation  |
\*---------------------------------------------------------------------------*/
FoamFile
{
    format      ascii;
    class       surfaceScalarField;
    location    "27";
    object      phi_0;
}
// * * * * * * * * * * * * * * * * * * * * * * * * * * * * * * * * * * * * * //

dimensions      [0 3 -1 0 0 0 0];

internalField   nonuniform List<scalar> 
760
(
3.86103858e-06
-3.860299001e-06
-3.888450433e-05
4.274535921e-05
-0.0001293333864
9.044861151e-05
-0.0002520081699
0.000122673911
-0.0003913985119
0.0001393888895
-0.0005344567041
0.0001430574527
-0.0006696595122
0.0001352026109
-0.0007856914267
0.000116032109
-0.0008708830976
8.519409337e-05
-0.0009138449619
4.29644204e-05
-0.0009052569117
-8.586373457e-06
-0.0008404985893
-6.475751695e-05
-0.0007223527528
-0.0001181455379
-0.0005628669857
-0.0001594862014
-0.0003832610771
-0.0001796055971
-0.0002110976621
-0.000172162107
-7.466748817e-05
-0.0001364296312
4.589096642e-06
-7.925739253e-05
2.131885977e-05
-1.673106788e-05
2.131812124e-05
-4.625885734e-05
4.239858925e-05
-0.0002040598831
0.0002005457279
-0.0004606187591
0.0003470063784
-0.0007841582024
0.0004462132095
-0.001141354601
0.000496582702
-0.00150157736
0.0005032777676
-0.001836272804
0.0004699003459
-0.002117567002
0.0003973309216
-0.002318103306
0.0002857367909
-0.002412927513
0.0001377936467
-0.002383308004
-3.820328825e-05
-0.002221674457
-0.0002263928161
-0.001936512158
-0.0004033083554
-0.00155536751
-0.0005406283511
-0.001124269592
-0.0006107017302
-0.000702033379
-0.000594399143
-0.0003490755043
-0.0004893891812
-0.0001120747004
-0.0003162599079
-7.11319047e-06
-0.0001216963607
1.42041187e-05
-0.0001084470825
0.0001508455671
-0.0003932332228
0.0004853316341
-0.0008096370934
0.000763409523
-0.001310137814
0.0009467095828
-0.001849214125
0.001035658245
-0.002384716521
0.001038780813
-0.002876701384
0.0009618891405
-0.003286251193
0.0008068868369
-0.003575914355
0.0005754051793
-0.003712389943
0.0002742696156
-0.003671213422
-7.937942594e-05
-0.003442615788
-0.0004549901813
-0.003037296668
-0.0008086271013
-0.002490391048
-0.001087533348
-0.001861576482
-0.001239515622
-0.001229142366
-0.001226831889
-0.0006766976109
-0.001041833488
-0.0002735880991
-0.0007193726876
-5.368920835e-05
-0.000341597317
-3.948516691e-05
-0.0001674629604
0.0003183087363
-0.0005746311753
0.0008924987589
-0.001141934778
0.001330715981
-0.001803710293
0.001608484201
-0.002503747984
0.001735696354
-0.003191999286
0.001727031758
-0.003821470791
0.001591362319
-0.004346443976
0.001331863885
-0.004722857833
0.0009518212117
-0.004911057461
0.0004624661727
-0.004880586626
-0.0001098531211
-0.004616391471
-0.0007191853794
-0.004125637034
-0.001299379208
-0.003443622667
-0.00176954569
-0.002636614163
-0.002046522867
-0.001798295721
-0.002065148801
-0.001036606442
-0.001803522679
-0.000450513283
-0.001305465499
-0.0001026295904
-0.0006894798856
-0.0001421151244
-0.0002201083063
0.0005384182052
-0.0007382665693
0.001410658986
-0.001442827437
0.002035277728
-0.002250460995
0.002416115553
-0.003095649014
0.002580883197
-0.00392308654
0.002554469524
-0.004682038497
0.002350314833
-0.005323162826
0.001972987697
-0.00579801235
0.001426667404
-0.006061046615
0.0007254972103
-0.006073917655
-9.698098882e-05
-0.005811627036
-0.0009814729939
-0.005270889921
-0.001840114008
-0.004479148587
-0.002561285488
-0.003502446487
-0.003023221819
-0.002447325223
-0.003120266573
-0.001450453815
-0.002800394686
-0.0006517472445
-0.002104170204
-0.0001559419096
-0.001185286106
-0.0002980584078
-0.0002649220808
0.0008033411102
-0.0008785504362
0.002024288848
-0.001702222278
0.002858949104
-0.002637490976
0.003351383015
-0.003611616789
0.00355500696
-0.004566527218
0.003509378569
-0.005450592617
0.003234377667
-0.006213548668
0.002735942036
-0.006804420255
0.002017535889
-0.007172035729
0.001093111449
-0.007268333852
-6.798889266e-07
-0.007053580264
-0.001196223581
-0.006506882835
-0.002386810949
-0.005638569484
-0.003429599625
-0.004505299707
-0.004156489803
-0.003221075593
-0.004404488786
-0.001954234819
-0.004067237577
-0.0008990459151
-0.003159360367
-0.0002211457354
-0.001863190057
-0.0005192056802
-0.0003003268732
0.001103668896
-0.0009900721125
0.002714034466
-0.001909797617
0.003778673111
-0.002949481306
0.004391064325
-0.004031687735
0.004637211661
-0.005098071871
0.004575762922
-0.006098836151
0.004235139799
-0.006985544297
0.003622649653
-0.007707010122
0.002739000912
-0.008207783238
0.001593885856
-0.008429079982
0.0002206185579
-0.008314372546
-0.001310933225
-0.007818304128
-0.00288288273
-0.006924099067
-0.004323805894
-0.005666171696
-0.005414416702
-0.004154137634
-0.005916524171
-0.002584500762
-0.005636876402
-0.001218108651
-0.004525756266
-0.0003076605457
-0.00277363914
-0.0008268659879
-0.0003246158871
0.001428285325
-0.001067257119
0.003456674818
-0.002054506104
0.004765920367
-0.003168475173
0.005505030722
-0.004329548864
0.005798285297
-0.005481488494
0.005727704465
-0.006579027596
0.005332677173
-0.007578641578
0.004622262603
-0.008432215306
0.00359257256
-0.009083080279
0.00224475051
-0.009464635866
0.0006021728997
-0.009503013256
-0.001272562023
-0.009125611195
-0.003260289849
-0.008279309722
-0.005170106108
-0.006960206014
-0.006733518056
-0.005253062882
-0.007623667786
-0.003366955503
-0.007522981368
-0.001633818284
-0.006258894719
-0.0004258782445
-0.003981575572
-0.001252743214
-0.0003365713674
0.001764856047
-0.001105747342
0.004225848289
-0.00212663142
0.005786803386
-0.003276682071
0.006655081378
-0.004476251997
0.006997857579
-0.005673328332
0.006924783406
-0.006829813162
0.006489160007
-0.00791055069
0.005702998333
-0.008874933818
0.004556952462
-0.00967049037
0.003040304725
-0.01022854463
0.001160224195
-0.01046319555
-0.001037914582
-0.01027634425
-0.00344714147
-0.009573444295
-0.005873001705
-0.008296173441
-0.008010785232
-0.006476216386
-0.009443624047
-0.004302830926
-0.009696364198
-0.00216530723
-0.008396417617
-0.0005868426594
-0.005560039858
-0.001839587513
-0.0003365341852
0.002101389721
-0.001104984531
0.004994297226
-0.002121766158
0.006803586264
-0.003261840204
0.007795158785
-0.004447219214
0.008183238659
-0.00563202502
0.00810958961
-0.006787875378
0.007645007527
-0.007891618208
0.006806739405
-0.008915367201
0.005580699403
-0.009818037681
0.003942973555
-0.01053802368
0.001880206719
-0.01098761327
-0.0005883247477
-0.01105212005
-0.003382629786
-0.01059821177
-0.006326906163
-0.009502694767
-0.009106301729
-0.007713690699
-0.01123262911
-0.005351292037
-0.01205876532
-0.002818178224
-0.01092953167
-0.0008017120083
-0.007576511697
-0.002641302382
-0.0003278903565
0.00242927985
-0.001071731632
0.005738138459
-0.002046136594
0.007777992439
-0.003124293022
0.008873318768
-0.004231508097
0.009290453984
-0.005330199788
0.009208279384
-0.006404316564
0.008719121426
-0.007446217401
0.007848639769
-0.008445896926
0.006580378525
-0.009381330535
0.004878407561
-0.01020890123
0.002707776396
-0.01085303427
5.580941131e-05
-0.01119864266
-0.003037019122
-0.01108678404
-0.006438767142
-0.01033150776
-0.009861581005
-0.008774927598
-0.01278920879
-0.006409913881
-0.0144237779
-0.003571870954
-0.01376757087
-0.001080089138
-0.01006829123
-0.003721391575
-0.000319039735
0.002748319211
-0.001024307529
0.00644340673
-0.001922440067
0.00867612485
-0.002884206781
0.009835087469
-0.003840967909
0.01024721487
-0.004766917031
0.01013422769
-0.005661508981
0.009613711742
-0.006535758137
0.008722889125
-0.007401588608
0.007446208782
-0.008262242996
0.005739060051
-0.00910178627
0.003547319143
-0.009872590806
0.0008266165928
-0.01047826908
-0.002431339831
-0.01075938944
-0.006157648869
-0.0104870102
-0.01013396041
-0.009395362349
-0.01388085532
-0.007300865357
-0.0165182716
-0.004362389327
-0.01670604807
-0.001425888469
-0.01300478698
-0.005147283304
-0.0003261995393
0.003074518576
-0.0009974684514
0.007114675909
-0.001795043418
0.009473699377
-0.002586458927
0.01062650388
-0.003315381744
0.01097613719
-0.003974312817
0.01079316068
-0.004582759173
0.01022215934
-0.005173148552
0.009313277693
-0.005781404764
0.008054463671
-0.006438952606
0.006396606356
-0.007163459121
0.004271825685
-0.007945754725
0.001608912972
-0.008729832387
-0.001647264871
-0.009385976257
-0.005501505297
-0.009680769334
-0.00983916445
-0.009269323929
-0.01429230273
-0.007773690858
-0.01801390734
-0.005065002534
-0.01941474474
-0.001828981365
-0.01624081053
-0.006976264434
-0.0003779176702
0.003452436229
-0.001047853798
0.007784612722
-0.00173240076
0.01015824718
-0.002298908651
0.01119301266
-0.002717291451
0.01139451845
-0.003010132755
0.01108600313
-0.003223681644
0.01043571058
-0.003414230932
0.009503826471
-0.003641466878
0.008281695514
-0.003963711925
0.006718850038
-0.004431974284
0.004740092385
-0.005079847908
0.002256790852
-0.005905156811
-0.0008219567821
-0.006837987653
-0.00456867387
-0.007690697639
-0.008986453507
-0.008100754547
-0.01388224685
-0.007528715768
-0.01858594667
-0.005484105266
-0.02145935357
-0.002250851546
-0.01947406575
-0.009227110109
-0.0005217854544
0.003974221022
-0.001257561722
0.008520389025
-0.001819647899
0.01072033456
-0.002092862387
0.01146622918
-0.002102272562
0.01140392761
-0.001919669143
0.0109033986
-0.001626911761
0.01014295391
-0.001306129575
0.009183045003
-0.00103839163
0.008013958209
-0.0009040137373
0.006584474272
-0.0009815315139
0.004817612161
-0.001343158488
0.002618414396
-0.002042925103
-0.0001221949388
-0.003089305465
-0.003522296129
-0.004388329099
-0.007687430383
-0.005643865191
-0.01262670498
-0.006247176499
-0.01798263141
-0.005350083904
-0.02235644828
-0.002601755092
-0.02222239652
-0.01182886733
-0.0008264696849
0.004800690187
-0.001720558923
0.009414477494
-0.002112863229
0.0111126373
-0.001967156775
0.01132052348
-0.001420897219
0.01085766758
-0.0006222983729
0.01010479944
0.0003023092709
0.009218347135
0.001245266544
0.008240089175
0.002109119003
0.007150108144
0.002799324668
0.0058942727
0.003219315484
0.004397623929
0.00326870942
0.002569020085
0.002846471163
0.0003000502664
0.001866209393
-0.002542033995
0.0003014789724
-0.006122708331
-0.001700013887
-0.01062522079
-0.003602850182
-0.01607979511
-0.004312779334
-0.02164651604
-0.002705804692
-0.02382936825
-0.01453467388
-0.001358274017
0.00615896451
-0.002449935026
0.01050613811
-0.00244541517
0.01110811089
-0.001586888413
0.01046199686
-0.0002263456827
0.009497127244
0.001387917818
0.008490539509
0.003088480896
0.007517784185
0.004752825499
0.006575742133
0.006279851679
0.005623080528
0.007573708433
0.0046004177
0.008533050725
0.003438282298
0.009043938085
0.002058130118
0.008975482748
0.0003685094149
0.008182360483
-0.001748912295
0.006524679911
-0.004465021897
0.003954206786
-0.008054744824
0.0007693717871
-0.01289495863
-0.00193174365
-0.0189453971
-0.0022732991
-0.02348781374
-0.01680796962
-0.002136765426
0.00829572977
-0.002934432992
0.01130380566
-0.001718414919
0.009892087434
0.0004799485452
0.008263629127
0.003035745844
0.006941332016
0.005661301566
0.005864987112
0.00820578418
0.004973302834
0.01057412355
0.004207403338
0.01269292752
0.003504280523
0.01448870841
0.002804640812
0.01587519406
0.002051794766
0.01674457064
0.001188751563
0.01695847779
0.0001546039464
0.01634317547
-0.001133612973
0.01468121112
-0.00280305324
0.01173645281
-0.005109979254
0.00741854129
-0.008577055043
0.002417030401
-0.01394388785
-0.0008976935356
-0.02017309061
-0.01770566416
-0.002483089081
0.01077881716
-8.425671556e-06
0.008829143717
0.004175055091
0.005708607826
0.008312077081
0.00412660608
0.01208945784
0.003163949209
0.01547866031
0.002475784133
0.01848294722
0.001969015859
0.02111012471
0.001580224942
0.02335829624
0.001256110576
0.02520613364
0.0009568081977
0.02660709222
0.0006508414238
0.02748266743
0.0003131808344
0.02771739472
-8.012962171e-05
0.02714980914
-0.0005660300874
0.02554000617
-0.001193261401
0.02252558818
-0.002095561975
0.01760334734
-0.003654819807
0.01039023725
-0.00673076666
0.002468154171
-0.01225101635
-0.01523750791
0.01077881526
0.01960795592
0.02531656313
0.02944316977
0.03260712044
0.03508290511
0.03705191963
0.03863214546
0.03988825948
0.04084506605
0.04149590475
0.04180909246
0.04172896104
0.04116293644
0.03996967488
0.03787411329
0.03421929238
0.02748852397
0.01523750798
)
;

boundaryField
{
    movingWall
    {
        type            calculated;
        value           uniform 0;
    }
    fixedWalls
    {
        type            calculated;
        value           uniform 0;
    }
    frontAndBack
    {
        type            empty;
    }
}


// ************************************************************************* //
