/*--------------------------------*- C++ -*----------------------------------*\
  =========                 |
  \\      /  F ield         | OpenFOAM: The Open Source CFD Toolbox
   \\    /   O peration     | Website:  https://openfoam.org
    \\  /    A nd           | Version:  13
     \\/     M anipulation  |
\*---------------------------------------------------------------------------*/
FoamFile
{
    format      ascii;
    class       volVectorField;
    location    "27";
    object      U;
}
// * * * * * * * * * * * * * * * * * * * * * * * * * * * * * * * * * * * * * //

dimensions      [0 1 -1 0 0 0 0];

internalField   nonuniform List<vector> 
400
(
(0.0001724101346 -0.0001759772905 0)
(-0.0001507690208 3.791407511e-05 0)
(-0.001520326959 0.0002705872385 0)
(-0.003721771387 0.0004187505936 0)
(-0.006416828338 0.0004966076274 0)
(-0.009310744212 0.0005251412009 0)
(-0.0121593479 0.0005141364604 0)
(-0.01473583892 0.0004629742173 0)
(-0.01680797089 0.0003655420649 0)
(-0.01813815932 0.0002169803739 0)
(-0.01850900236 2.063563374e-05 0)
(-0.01777016893 -0.0002066210971 0)
(-0.01589539769 -0.0004320570927 0)
(-0.01303199243 -0.0006107556051 0)
(-0.009521500975 -0.0006955801113 0)
(-0.005871776481 -0.0006521703874 0)
(-0.002671412159 -0.0004734843363 0)
(-0.0004509326831 -0.0001882671798 0)
(0.0005021517025 0.0001247410023 0)
(0.0002977962902 0.0002910091482 0)
(-5.341997828e-05 0.0001493086909 0)
(-0.002032714776 0.001896585217 0)
(-0.006277627884 0.003675366015 0)
(-0.01226665576 0.004903443465 0)
(-0.0192654404 0.005547567913 0)
(-0.02661949063 0.005682406606 0)
(-0.03373989627 0.005358965488 0)
(-0.04006243457 0.004585650473 0)
(-0.04502640297 0.003354480991 0)
(-0.04809172936 0.001684242163 0)
(-0.04879922323 -0.0003369274961 0)
(-0.04686390737 -0.002523452975 0)
(-0.04228016512 -0.004590229622 0)
(-0.03540749666 -0.006186737242 0)
(-0.02700045543 -0.006969596187 0)
(-0.01814917459 -0.006703862773 0)
(-0.01010934003 -0.005366900647 0)
(-0.004028651412 -0.003224082285 0)
(-0.0006069935275 -0.000883398834 0)
(0.000207668105 0.0005503298441 0)
(-0.0003500357749 0.00169003847 0)
(-0.004359499734 0.006310455093 0)
(-0.01153982225 0.01040493504 0)
(-0.02099737085 0.01317200854 0)
(-0.03167369046 0.01456435277 0)
(-0.04268061917 0.01470684371 0)
(-0.05320316277 0.01368968387 0)
(-0.06245024338 0.01153818756 0)
(-0.06964488283 0.008266887481 0)
(-0.07405719209 0.003965867025 0)
(-0.07508230739 -0.001117089497 0)
(-0.07235190814 -0.006526133724 0)
(-0.06585716 -0.0116005782 0)
(-0.05605301738 -0.01554894763 0)
(-0.0439061569 -0.01760036238 0)
(-0.03084355191 -0.01721911651 0)
(-0.01856228272 -0.01433502752 0)
(-0.008696972867 -0.009517024287 0)
(-0.002417065116 -0.004050541281 0)
(2.340399437e-05 -3.007698428e-05 0)
(-0.0006183104075 0.00447981879 0)
(-0.006600804425 0.01330828513 0)
(-0.0165955441 0.02035810499 0)
(-0.02927013089 0.02494031726 0)
(-0.04323976584 0.02711646315 0)
(-0.05744081138 0.02710030352 0)
(-0.07091640708 0.02503178361 0)
(-0.08273783371 0.02095996971 0)
(-0.09199295833 0.01493542475 0)
(-0.09782150734 0.007143077377 0)
(-0.09949455263 -0.001975507225 0)
(-0.09652889242 -0.01164804429 0)
(-0.08882171788 -0.02077289799 0)
(-0.07678393491 -0.02802499578 0)
(-0.06143703946 -0.03208162992 0)
(-0.04441931527 -0.03196442823 0)
(-0.02783005735 -0.02743717104 0)
(-0.01387384097 -0.01933135809 0)
(-0.00438609477 -0.009662418784 0)
(-0.0001351655779 -0.001566633037 0)
(-0.000849398014 0.008406518868 0)
(-0.008610204017 0.02267474028 0)
(-0.02116879083 0.03322490431 0)
(-0.03676164796 0.03979725299 0)
(-0.05369670597 0.04272873153 0)
(-0.07077777072 0.04239503844 0)
(-0.08696962767 0.03901113565 0)
(-0.101275235 0.03265433378 0)
(-0.1127058408 0.02340631255 0)
(-0.120301709 0.0115351022 0)
(-0.1231978981 -0.00234043598 0)
(-0.1207303398 -0.01714515546 0)
(-0.1125822491 -0.03132492837 0)
(-0.09896242039 -0.04295809156 0)
(-0.08078569594 -0.05002956114 0)
(-0.05979271046 -0.05090172711 0)
(-0.03849363636 -0.0449311236 0)
(-0.01982960926 -0.03304600364 0)
(-0.006586244777 -0.01799271169 0)
(-0.0002801700388 -0.004112860787 0)
(-0.001040935644 0.013320043 0)
(-0.01031890787 0.03412870783 0)
(-0.02509228472 0.04867889725 0)
(-0.0432240214 0.05740561952 0)
(-0.06276262767 0.06108863128 0)
(-0.08242510793 0.06035398181 0)
(-0.1011534528 0.05552675442 0)
(-0.1179414924 0.04671348084 0)
(-0.1317734817 0.03400242813 0)
(-0.1416148069 0.01769731793 0)
(-0.1464507529 -0.001471301734 0)
(-0.1453707232 -0.02218772307 0)
(-0.1377224591 -0.04248647461 0)
(-0.1233425475 -0.05980982426 0)
(-0.1028428125 -0.07128837971 0)
(-0.0779001503 -0.07431980928 0)
(-0.05138906652 -0.06745697399 0)
(-0.02715191894 -0.05139613056 0)
(-0.009299295849 -0.02956240405 0)
(-0.0004537401945 -0.007816596757 0)
(-0.001186661419 0.01904484993 0)
(-0.01166221317 0.04731793761 0)
(-0.02820739418 0.06630892387 0)
(-0.04839409145 0.07736003219 0)
(-0.07007577699 0.08184406078 0)
(-0.091931496 0.08072778134 0)
(-0.1129331478 0.07448637414 0)
(-0.1321225384 0.06325421697 0)
(-0.1485105523 0.047087244 0)
(-0.1610269795 0.02624982786 0)
(-0.1685139983 0.001479044467 0)
(-0.1697863178 -0.02579098364 0)
(-0.1637694475 -0.05327569703 0)
(-0.1497601177 -0.07779641601 0)
(-0.1278310032 -0.09548747116 0)
(-0.09932397356 -0.102417167 0)
(-0.06728226966 -0.0957619408 0)
(-0.03651012975 -0.07540103502 0)
(-0.01288675259 -0.04521894694 0)
(-0.0007064961514 -0.01300430471 0)
(-0.001278740459 0.02537149017 0)
(-0.01257434102 0.06181035421 0)
(-0.03035310963 0.08559495777 0)
(-0.05198493084 0.09912899438 0)
(-0.07519583236 0.1045046685 0)
(-0.09867359455 0.1031166715 0)
(-0.1214698117 0.09563483881 0)
(-0.1427328079 0.08222311839 0)
(-0.1615652702 0.06286258143 0)
(-0.1769272586 0.03768964005 0)
(-0.1875804624 0.007315277156 0)
(-0.1920941998 -0.0268765625 0)
(-0.188947213 -0.06244663281 0)
(-0.1767846505 -0.09570624234 0)
(-0.1548898007 -0.1217438642 0)
(-0.1238847456 -0.1349549648 0)
(-0.08656071858 -0.1304146337 0)
(-0.04849691104 -0.1062310372 0)
(-0.01774649575 -0.06613626006 0)
(-0.001100690839 -0.02020652143 0)
(-0.001312539448 0.03205795317 0)
(-0.01300930147 0.07709843815 0)
(-0.03140037604 0.1059030253 0)
(-0.05373414838 0.1220252662 0)
(-0.0776690872 0.1283782787 0)
(-0.1019416409 0.1268692141 0)
(-0.1257285422 0.1184152521 0)
(-0.1483446949 0.103223494 0)
(-0.1690633847 0.0811690011 0)
(-0.1869744026 0.05217819421 0)
(-0.2008741585 0.01659691053 0)
(-0.2092044974 -0.02443314526 0)
(-0.2100805783 -0.06856472617 0)
(-0.2014804077 -0.1118415256 0)
(-0.181703235 -0.1484363587 0)
(-0.1502071788 -0.1708840812 0)
(-0.1088669591 -0.1713981374 0)
(-0.06344254284 -0.1449354751 0)
(-0.0242854482 -0.09374198563 0)
(-0.001718544818 -0.03017301184 0)
(-0.001293842331 0.03884912243 0)
(-0.01297857728 0.09262737762 0)
(-0.03131811643 0.1265006618 0)
(-0.05349685823 0.145196304 0)
(-0.0771510716 0.1525311126 0)
(-0.1010995771 0.1510104823 0)
(-0.1246862381 0.1418638952 0)
(-0.1474520906 0.1253755001 0)
(-0.1689274799 0.1013100875 0)
(-0.1884551537 0.06933220262 0)
(-0.2050315614 0.02940828528 0)
(-0.2171718113 -0.01776073868 0)
(-0.222833079 -0.07021553161 0)
(-0.2194648604 -0.1241191082 0)
(-0.2043362184 -0.1731110628 0)
(-0.1753607484 -0.2080004662 0)
(-0.1326770181 -0.2175830242 0)
(-0.08113795014 -0.1919762632 0)
(-0.03286620755 -0.1295353714 0)
(-0.002673430041 -0.0438834239 0)
(-0.001248801879 0.04552173234 0)
(-0.01260282127 0.1078590081 0)
(-0.0302620863 0.1466045947 0)
(-0.05136846398 0.1676459603 0)
(-0.07356712296 0.1757858927 0)
(-0.09579712619 0.1742207852 0)
(-0.1176154471 0.1645700421 0)
(-0.1388474015 0.1472513828 0)
(-0.1593632388 0.1219507601 0)
(-0.1788835464 0.08806710129 0)
(-0.1967892182 0.04512673242 0)
(-0.2119206891 -0.006766146403 0)
(-0.2223895927 -0.06635003204 0)
(-0.2254335846 -0.1303896546 0)
(-0.2174860533 -0.1926435451 0)
(-0.194771463 -0.2427953325 0)
(-0.1549349269 -0.2662054733 0)
(-0.1004491652 -0.2465622289 0)
(-0.04368003579 -0.1747289743 0)
(-0.004120196399 -0.06254065318 0)
(-0.001237735805 0.05196352692 0)
(-0.01217753785 0.122379903 0)
(-0.02867658473 0.1654652069 0)
(-0.0478133074 0.1882910602 0)
(-0.06727148779 0.196765046 0)
(-0.08617739159 0.1948797048 0)
(-0.1043682099 0.1847261788 0)
(-0.1220136276 0.1669248451 0)
(-0.1393904007 0.1411445967 0)
(-0.1566928984 0.1065670529 0)
(-0.1738399008 0.06229026963 0)
(-0.19024771 0.007749724838 0)
(-0.204532882 -0.05671747223 0)
(-0.2141807128 -0.1289797398 0)
(-0.2152791187 -0.2037532814 0)
(-0.2026201066 -0.2707013731 0)
(-0.1709651088 -0.31259316 0)
(-0.1189087583 -0.3058907659 0)
(-0.05649582902 -0.2296333561 0)
(-0.006257920262 -0.08751387691 0)
(-0.001377201396 0.0583003017 0)
(-0.0122589833 0.1360560721 0)
(-0.0273985401 0.1824765234 0)
(-0.04376390898 0.2060361933 0)
(-0.05914224329 0.2139634241 0)
(-0.07298661557 0.2111638701 0)
(-0.08552905602 0.2002631989 0)
(-0.09735376926 0.1821392611 0)
(-0.1091861826 0.1565121344 0)
(-0.1217361562 0.1224301388 0)
(-0.1355367463 0.07864784096 0)
(-0.150731132 0.02397717098 0)
(-0.1667509419 -0.04224288892 0)
(-0.1818489597 -0.1193460109 0)
(-0.1924859353 -0.2038437438 0)
(-0.192774853 -0.2868581986 0)
(-0.1748688839 -0.3504285369 0)
(-0.1324899021 -0.3645745795 0)
(-0.07026359408 -0.2927436245 0)
(-0.009312226954 -0.1201539661 0)
(-0.00188088657 0.06509387655 0)
(-0.01378430209 0.1492268624 0)
(-0.02774491769 0.1972745788 0)
(-0.04062786039 0.2198195705 0)
(-0.05050750079 0.2258026843 0)
(-0.05744094639 0.2211489723 0)
(-0.06224518971 0.2090171281 0)
(-0.06600613404 0.1905397914 0)
(-0.06991290731 0.165523882 0)
(-0.07516687385 0.1329688319 0)
(-0.08288741248 0.0914170148 0)
(-0.09396490108 0.0392168609 0)
(-0.1087966622 -0.02517103396 0)
(-0.1268132421 -0.1026006652 0)
(-0.1456561311 -0.1919462688 0)
(-0.1599464644 -0.2873087135 0)
(-0.1603505321 -0.3727199477 0)
(-0.1357406996 -0.4146635041 0)
(-0.08261774371 -0.3596684957 0)
(-0.01344747652 -0.1613250733 0)
(-0.003119095383 0.07363472191 0)
(-0.0182182859 0.1629043147 0)
(-0.03149441619 0.2097389428 0)
(-0.04001941467 0.2285359624 0)
(-0.04264635659 0.2305775702 0)
(-0.04054152785 0.2228232333 0)
(-0.03538576421 0.2088228257 0)
(-0.02886444444 0.1898508086 0)
(-0.0226168166 0.1657632988 0)
(-0.01825524695 0.1355555639 0)
(-0.0173692316 0.09768946363 0)
(-0.02148000189 0.05027667166 0)
(-0.03190002049 -0.008785311851 0)
(-0.04939436917 -0.08156526993 0)
(-0.07340480019 -0.1693252706 0)
(-0.1004100842 -0.2702101189 0)
(-0.1215169588 -0.373292727 0)
(-0.1221503599 -0.446551659 0)
(-0.08935757333 -0.4224444151 0)
(-0.0184563811 -0.2105964525 0)
(-0.005605448347 0.08643539751 0)
(-0.02753734095 0.1788627571 0)
(-0.04032729108 0.2196290645 0)
(-0.04252558188 0.2305744786 0)
(-0.03501789157 0.226077551 0)
(-0.02093270752 0.2138309427 0)
(-0.003143167729 0.197373615 0)
(0.01600701381 0.1778474851 0)
(0.03449562006 0.1550217784 0)
(0.05043365025 0.1278714098 0)
(0.06193715959 0.09487490745 0)
(0.06705879223 0.05413581291 0)
(0.06378647929 0.003392067031 0)
(0.05017528265 -0.06004181762 0)
(0.0248261679 -0.13918946 0)
(-0.01161070889 -0.2363360473 0)
(-0.05302717812 -0.3480827318 0)
(-0.08431401304 -0.4504454293 0)
(-0.08396151244 -0.4699482995 0)
(-0.02313351285 -0.2658525603 0)
(-0.009898550329 0.1087917205 0)
(-0.04326987987 0.1993356676 0)
(-0.05291952289 0.2251133195 0)
(-0.04298620512 0.2223420095 0)
(-0.0195723921 0.208468083 0)
(0.0111135532 0.1907196675 0)
(0.04493990929 0.1717693009 0)
(0.0791000726 0.1521480914 0)
(0.1114389156 0.131305305 0)
(0.1400487513 0.1081320949 0)
(0.1630083253 0.08118810705 0)
(0.1782139957 0.04875838503 0)
(0.1832635158 0.008793260609 0)
(0.1754181242 -0.0413340005 0)
(0.1517050206 -0.1053021421 0)
(0.1097447949 -0.1883634966 0)
(0.05087320194 -0.2954125849 0)
(-0.01355593991 -0.4172038569 0)
(-0.05729514744 -0.4883476934 0)
(-0.02471855888 -0.3234887691 0)
(-0.01776959095 0.1518461784 0)
(-0.06137609834 0.2236801332 0)
(-0.05259425701 0.2174619228 0)
(-0.01504816591 0.1944947394 0)
(0.03431332269 0.170454726 0)
(0.08709859594 0.1484185804 0)
(0.139374634 0.1287784098 0)
(0.1888925861 0.110922935 0)
(0.23408014 0.0937845871 0)
(0.2735409351 0.07615305566 0)
(0.3057354432 0.0567574285 0)
(0.3287780121 0.03423115349 0)
(0.340265973 0.007023190785 0)
(0.3371698521 -0.02687351505 0)
(0.3156459403 -0.0706171471 0)
(0.2710651715 -0.1301180345 0)
(0.1992050023 -0.2162365771 0)
(0.1023064201 -0.3381857908 0)
(0.003946729274 -0.4566196821 0)
(-0.01606063769 -0.3690714515 0)
(-0.0241565155 0.2084167564 0)
(-0.03780661825 0.2305099368 0)
(0.03733191244 0.1765542412 0)
(0.1249507383 0.1367138192 0)
(0.2054546129 0.108797676 0)
(0.2773119573 0.08789516881 0)
(0.3412368182 0.07180814708 0)
(0.3975659523 0.05893718333 0)
(0.4463897157 0.04788429495 0)
(0.4874813524 0.03750921289 0)
(0.5202129465 0.02683437822 0)
(0.543330874 0.0149873195 0)
(0.5549148889 0.001075501638 0)
(0.5522723454 -0.015983651 0)
(0.5315451929 -0.03802602595 0)
(0.4872200389 -0.0689759918 0)
(0.4108046861 -0.1190323925 0)
(0.2906377902 -0.2093511309 0)
(0.1329881168 -0.3382983128 0)
(0.03865667712 -0.3403112996 0)
(0.2419246011 0.1091790208 0)
(0.3135925915 0.09718359907 0)
(0.4445170863 0.05699767384 0)
(0.5497912079 0.03510044677 0)
(0.6240917596 0.02370313939 0)
(0.6794433425 0.01666068385 0)
(0.7231183602 0.01193572714 0)
(0.7582575002 0.008668406716 0)
(0.7864395225 0.006257027687 0)
(0.8084772627 0.004261664212 0)
(0.824551027 0.002378627419 0)
(0.8342750012 0.0003986878567 0)
(0.8367650072 -0.001856456379 0)
(0.8305740496 -0.004548320197 0)
(0.8133644957 -0.008003642156 0)
(0.7812120008 -0.01289330321 0)
(0.725796336 -0.02127313591 0)
(0.6299358285 -0.03814381693 0)
(0.4592815956 -0.08561442171 0)
(0.3048830558 -0.1257077641 0)
)
;

boundaryField
{
    movingWall
    {
        type            fixedValue;
        value           uniform (1 0 0);
    }
    fixedWalls
    {
        type            fixedValue;
        value           uniform (0 0 0);
    }
    frontAndBack
    {
        type            empty;
    }
}


// ************************************************************************* //
