/*--------------------------------*- C++ -*----------------------------------*\
  =========                 |
  \\      /  F ield         | OpenFOAM: The Open Source CFD Toolbox
   \\    /   O peration     | Website:  https://openfoam.org
    \\  /    A nd           | Version:  13
     \\/     M anipulation  |
\*---------------------------------------------------------------------------*/
FoamFile
{
    format      ascii;
    class       volVectorField;
    location    "27";
    object      U_0;
}
// * * * * * * * * * * * * * * * * * * * * * * * * * * * * * * * * * * * * * //

dimensions      [0 1 -1 0 0 0 0];

internalField   nonuniform List<vector> 
400
(
(0.0001706250161 -0.0001741356678 0)
(-0.0001529272535 3.922878876e-05 0)
(-0.001517771616 0.0002709377117 0)
(-0.003710154646 0.0004185693077 0)
(-0.006393494693 0.0004960687656 0)
(-0.009274238454 0.0005242732254 0)
(-0.01210927415 0.0005129605188 0)
(-0.01467302603 0.0004615884126 0)
(-0.01673475461 0.0003641613384 0)
(-0.01805855583 0.0002159165738 0)
(-0.01842855352 2.022238178e-05 0)
(-0.01769532657 -0.0002061452444 0)
(-0.01583245426 -0.0004306794611 0)
(-0.01298573798 -0.0006087660514 0)
(-0.009493960226 -0.0006935431014 0)
(-0.005861470494 -0.0006507602318 0)
(-0.002673541985 -0.0004732217117 0)
(-0.0004585411521 -0.000189338922 0)
(0.0004954080422 0.0001225279023 0)
(0.0002956800884 0.0002889178612 0)
(-5.444810059e-05 0.0001513982499 0)
(-0.002024550343 0.001890215008 0)
(-0.006250350273 0.003660432837 0)
(-0.01221112236 0.004882207133 0)
(-0.01917666145 0.005522556271 0)
(-0.0264954323 0.005655850305 0)
(-0.03358142033 0.005333161561 0)
(-0.03987361311 0.00456327824 0)
(-0.04481477457 0.003338571038 0)
(-0.04786817906 0.001677733287 0)
(-0.04857720014 -0.0003319023054 0)
(-0.04665788794 -0.002506360333 0)
(-0.04210350871 -0.004562751896 0)
(-0.03527006727 -0.006152891273 0)
(-0.0269065644 -0.006935165215 0)
(-0.01809642947 -0.006675091717 0)
(-0.01008899954 -0.005348679354 0)
(-0.004027804614 -0.003218178539 0)
(-0.0006124112131 -0.0008873936628 0)
(0.0002051911352 0.000543374511 0)
(-0.0003494495342 0.001685230021 0)
(-0.004337424872 0.006283272725 0)
(-0.01148225953 0.01035787845 0)
(-0.02089220845 0.01311111066 0)
(-0.03151551461 0.01449596226 0)
(-0.04246830403 0.01463686596 0)
(-0.05293980055 0.01362420581 0)
(-0.06214347869 0.01148388375 0)
(-0.06930696055 0.008230713874 0)
(-0.07370444222 0.003954007668 0)
(-0.07473385118 -0.001100707855 0)
(-0.07202762684 -0.006481292468 0)
(-0.06557514291 -0.01153176698 0)
(-0.0558268467 -0.01546537602 0)
(-0.04374253686 -0.01751474414 0)
(-0.03074080399 -0.01714509469 0)
(-0.0185104598 -0.01428360189 0)
(-0.008680077341 -0.009492961266 0)
(-0.002416783688 -0.004049559312 0)
(2.128976208e-05 -3.982855381e-05 0)
(-0.000616151064 0.004459761207 0)
(-0.006564305669 0.01324441829 0)
(-0.0165075573 0.02025952519 0)
(-0.02911681531 0.02481936678 0)
(-0.04301652162 0.02698492404 0)
(-0.05714829221 0.02696910304 0)
(-0.07056024671 0.02491202491 0)
(-0.08232886793 0.02086335937 0)
(-0.09154699279 0.01487354573 0)
(-0.09735848596 0.00712563284 0)
(-0.09903703116 -0.001942911547 0)
(-0.09609999512 -0.01156590045 0)
(-0.0884427247 -0.02064909412 0)
(-0.0764716684 -0.02787472004 0)
(-0.06120139358 -0.03192564582 0)
(-0.0442612156 -0.03182538951 0)
(-0.02774078309 -0.027334231 0)
(-0.01383640629 -0.01927433123 0)
(-0.00437792899 -0.009646915726 0)
(-0.000136974756 -0.001575675546 0)
(-0.0008458863403 0.008363567153 0)
(-0.008561550157 0.02256042699 0)
(-0.02105563371 0.03305894125 0)
(-0.03656930918 0.03960071957 0)
(-0.05342189726 0.04252005028 0)
(-0.07042302316 0.04219084931 0)
(-0.08654268155 0.03882795572 0)
(-0.1007890597 0.03250903383 0)
(-0.1121781451 0.02331498273 0)
(-0.119753968 0.01151070703 0)
(-0.122653916 -0.002290780813 0)
(-0.1202146131 -0.01702255905 0)
(-0.1121181157 -0.03114020428 0)
(-0.09856979298 -0.04273179264 0)
(-0.0804786117 -0.0497902249 0)
(-0.05957659127 -0.05068165512 0)
(-0.03836331372 -0.04475949038 0)
(-0.01976900542 -0.03294048046 0)
(-0.006569110169 -0.01795172485 0)
(-0.0002817666225 -0.004116883883 0)
(-0.001036509397 0.01324838661 0)
(-0.01026251164 0.03395379661 0)
(-0.02496349003 0.04843422479 0)
(-0.04300807435 0.05712289275 0)
(-0.06245752793 0.06079371615 0)
(-0.08203482968 0.06006946686 0)
(-0.1006869643 0.05527444076 0)
(-0.1174125166 0.04651501135 0)
(-0.1311998 0.03387789014 0)
(-0.1410173004 0.01766254856 0)
(-0.1458523248 -0.00140770753 0)
(-0.1447952613 -0.02202700141 0)
(-0.137193866 -0.04224109725 0)
(-0.1228830856 -0.05950410295 0)
(-0.1024709486 -0.07095732439 0)
(-0.07762727919 -0.07400524493 0)
(-0.05121603812 -0.06719985868 0)
(-0.02706612571 -0.05122556117 0)
(-0.009272135627 -0.02948375533 0)
(-0.0004550737084 -0.007810838676 0)
(-0.001181972519 0.01894160687 0)
(-0.0116041818 0.04707772544 0)
(-0.02807581981 0.06598066072 0)
(-0.04817484639 0.07698702577 0)
(-0.06976782459 0.08145992665 0)
(-0.09153957531 0.0803608973 0)
(-0.1124664763 0.07416329637 0)
(-0.1315942656 0.06300058032 0)
(-0.1479368735 0.04692630058 0)
(-0.1604263123 0.02619968778 0)
(-0.1679063495 0.001549725605 0)
(-0.1691926905 -0.02559996082 0)
(-0.1632118703 -0.05297682891 0)
(-0.1492611995 -0.07741549232 0)
(-0.1274124594 -0.09506356166 0)
(-0.09900349152 -0.1020001483 0)
(-0.06706895561 -0.09540537525 0)
(-0.03639837319 -0.07514922763 0)
(-0.01284849891 -0.0450896758 0)
(-0.0007073598959 -0.01298342198 0)
(-0.001274582668 0.02523753024 0)
(-0.01252183887 0.06150694519 0)
(-0.03023365841 0.08518614616 0)
(-0.05178573999 0.09866954291 0)
(-0.07491642298 0.1040357498 0)
(-0.09831882777 0.1026720043 0)
(-0.1210483864 0.09524495179 0)
(-0.1422563692 0.08191659539 0)
(-0.1610472947 0.06266473011 0)
(-0.1763822171 0.03761993603 0)
(-0.1870234341 0.007384835353 0)
(-0.1915408951 -0.02666694993 0)
(-0.1884147459 -0.06210814297 0)
(-0.1762924385 -0.09526354197 0)
(-0.1544595896 -0.1212365432 0)
(-0.1235387596 -0.1344374754 0)
(-0.0863173176 -0.1299517198 0)
(-0.04836148191 -0.1058849263 0)
(-0.01769655288 -0.0659436539 0)
(-0.001100712 -0.02016452756 0)
(-0.001309726421 0.0318982852 0)
(-0.01296967103 0.07674134761 0)
(-0.03130832001 0.1054253058 0)
(-0.05357896359 0.1214918201 0)
(-0.07745050423 0.1278372087 0)
(-0.1016641649 0.1263589906 0)
(-0.1253998953 0.117969521 0)
(-0.1479745495 0.1028726414 0)
(-0.1686619421 0.08093908724 0)
(-0.1865513773 0.05208880016 0)
(-0.2004383305 0.01665919475 0)
(-0.2087640136 -0.02421768321 0)
(-0.2096442749 -0.06820538461 0)
(-0.201060027 -0.1113596378 0)
(-0.1813155464 -0.1478678973 0)
(-0.149874627 -0.1702825165 0)
(-0.1086155304 -0.1708345533 0)
(-0.06329147707 -0.1444896183 0)
(-0.02422463582 -0.09347578301 0)
(-0.001717201715 -0.03010358277 0)
(-0.001293050834 0.0386727197 0)
(-0.01295828306 0.09223327214 0)
(-0.03126708382 0.1259740387 0)
(-0.05340723259 0.1446097725 0)
(-0.07702252747 0.1519387035 0)
(-0.1009358932 0.1504547854 0)
(-0.1244938748 0.141380877 0)
(-0.1472385737 0.124996225 0)
(-0.1686996379 0.1010599384 0)
(-0.188217777 0.06922920489 0)
(-0.2047866311 0.0294618969 0)
(-0.2169187097 -0.01754981937 0)
(-0.2225699215 -0.06985565423 0)
(-0.2191916941 -0.1236272992 0)
(-0.2040593157 -0.1725161167 0)
(-0.175096392 -0.2073482098 0)
(-0.1324535998 -0.2169424511 0)
(-0.08098777579 -0.1914389072 0)
(-0.0327981171 -0.1291915804 0)
(-0.002670102994 -0.043780838 0)
(-0.001250417954 0.04534072595 0)
(-0.01260638378 0.1074504634 0)
(-0.03026195654 0.1460561266 0)
(-0.05136031626 0.1670344526 0)
(-0.07355031462 0.175169911 0)
(-0.09577423099 0.173646344 0)
(-0.1175911966 0.1640747395 0)
(-0.138826864 0.1468660052 0)
(-0.1593498364 0.1216987081 0)
(-0.1788774231 0.08796313883 0)
(-0.1967860072 0.04517645597 0)
(-0.2119116933 -0.006565498448 0)
(-0.2223620953 -0.06600706634 0)
(-0.2253742838 -0.1299184691 0)
(-0.2173870063 -0.1920642733 0)
(-0.1946362821 -0.2421404645 0)
(-0.1547861966 -0.2655316098 0)
(-0.1003258765 -0.2459609062 0)
(-0.04361245544 -0.1743149875 0)
(-0.004114253888 -0.06240154905 0)
(-0.001241755774 0.05179182743 0)
(-0.01220666812 0.121983194 0)
(-0.02873167868 0.1649265749 0)
(-0.04789403318 0.187687399 0)
(-0.06737654118 0.1961575524 0)
(-0.08630734711 0.1943168919 0)
(-0.1045250699 0.1842466199 0)
(-0.1221991021 0.166558368 0)
(-0.1396040532 0.1409117931 0)
(-0.1569305937 0.1064783512 0)
(-0.1740925279 0.06234594445 0)
(-0.1904998749 0.007941685099 0)
(-0.204764098 -0.05640153689 0)
(-0.2143678434 -0.1285535605 0)
(-0.2154000676 -0.2032296759 0)
(-0.2026621536 -0.270097191 0)
(-0.1709366241 -0.3119440343 0)
(-0.1188441674 -0.3052729757 0)
(-0.056441351 -0.2291723481 0)
(-0.006248896831 -0.08733951785 0)
(-0.001383223273 0.05815185312 0)
(-0.01231209257 0.1356982053 0)
(-0.02750643812 0.1819806525 0)
(-0.04393041709 0.2054743905 0)
(-0.05936501173 0.2133969436 0)
(-0.07326314294 0.2106422992 0)
(-0.08585705277 0.1998252799 0)
(-0.09772997827 0.1818134551 0)
(-0.1096051495 0.1563161298 0)
(-0.1221892489 0.1223701362 0)
(-0.1360112293 0.07871884982 0)
(-0.1512092258 0.02416534761 0)
(-0.167209715 -0.04195612792 0)
(-0.1822609644 -0.118977082 0)
(-0.1928209892 -0.203402335 0)
(-0.1930061109 -0.2863483231 0)
(-0.1749861919 -0.3498620934 0)
(-0.1325114362 -0.3639996198 0)
(-0.07023815855 -0.2922749925 0)
(-0.009300457202 -0.1199522588 0)
(-0.001888150982 0.06498079378 0)
(-0.01385630138 0.148932183 0)
(-0.02789586122 0.1968517202 0)
(-0.04086560723 0.2193308076 0)
(-0.05082849687 0.2253060297 0)
(-0.05783869742 0.2206929573 0)
(-0.06271156243 0.2086395253 0)
(-0.06653120905 0.190267461 0)
(-0.07048487061 0.1653722197 0)
(-0.07577209004 0.1329411899 0)
(-0.0835104406 0.09150494039 0)
(-0.0945882102 0.039402179 0)
(-0.1094001075 -0.02491173224 0)
(-0.1273730156 -0.1022888103 0)
(-0.1461432694 -0.1915937297 0)
(-0.160328336 -0.2869140909 0)
(-0.1606015709 -0.3722767193 0)
(-0.135857073 -0.4141871102 0)
(-0.08263562085 -0.3592425175 0)
(-0.01343550689 -0.1611121165 0)
(-0.003126436614 0.07356535873 0)
(-0.01830022592 0.1626908927 0)
(-0.03167065721 0.2094125733 0)
(-0.04030160545 0.2281446432 0)
(-0.04303025193 0.2301722615 0)
(-0.04101670644 0.2224486379 0)
(-0.03593785224 0.2085142829 0)
(-0.02947639068 0.1896334185 0)
(-0.02327011132 0.1656512039 0)
(-0.01893115513 0.1355514466 0)
(-0.01804992725 0.09778455847 0)
(-0.02214917014 0.05045218883 0)
(-0.03254266815 -0.008554583125 0)
(-0.04999519701 -0.08130467277 0)
(-0.07394434332 -0.1690520649 0)
(-0.100861142 -0.269926078 0)
(-0.1218490229 -0.3729847203 0)
(-0.1223418437 -0.4462098374 0)
(-0.08942290906 -0.4221102243 0)
(-0.01844972115 -0.2103969946 0)
(-0.005611030416 0.08641181172 0)
(-0.02761550419 0.1787381451 0)
(-0.04050174041 0.2194112011 0)
(-0.04281151289 0.2302939931 0)
(-0.03541214017 0.2257747507 0)
(-0.02142304191 0.2135438604 0)
(-0.003711120546 0.1971336466 0)
(0.01538346819 0.1776777749 0)
(0.03383979657 0.1549362085 0)
(0.04976812276 0.1278739815 0)
(0.06128178775 0.0949594439 0)
(0.06642939489 0.05428659648 0)
(0.06319439922 0.003586195222 0)
(0.04962828129 -0.05982989484 0)
(0.0243321228 -0.1389813567 0)
(-0.01203800984 -0.2361412376 0)
(-0.0533656435 -0.34789339 0)
(-0.08453625173 -0.4502408998 0)
(-0.084060706 -0.4697321232 0)
(-0.02313710613 -0.2656942364 0)
(-0.009899445375 0.1088054873 0)
(-0.0433255786 0.1992908861 0)
(-0.05305580512 0.2249983002 0)
(-0.04322154461 0.2221694329 0)
(-0.01990832637 0.2082656864 0)
(0.01068609343 0.190517008 0)
(0.04443815182 0.1715925027 0)
(0.07854606381 0.1520177303 0)
(0.110856836 0.1312349884 0)
(0.1394624262 0.1081278187 0)
(0.1624388797 0.08124754986 0)
(0.1776782011 0.04887071167 0)
(0.1827728322 0.008940479852 0)
(0.1749781802 -0.04117394259 0)
(0.1513172846 -0.1051505938 0)
(0.1094099531 -0.1882347401 0)
(0.05059646014 -0.2953076445 0)
(-0.01375439238 -0.4171032168 0)
(-0.05739854081 -0.4882347996 0)
(-0.02473105319 -0.3233872006 0)
(-0.01776261472 0.151875974 0)
(-0.06139185159 0.2236878245 0)
(-0.05265754313 0.2174236771 0)
(-0.01518061484 0.1944110173 0)
(0.03410179317 0.1703404417 0)
(0.0868077989 0.1482938597 0)
(0.1390139077 0.1286627244 0)
(0.1884783475 0.1108326265 0)
(0.2336334258 0.09373109314 0)
(0.2730841315 0.07614279791 0)
(0.3052898321 0.05679089443 0)
(0.3283620658 0.03430164611 0)
(0.339893903 0.007118353734 0)
(0.3368503105 -0.02677025219 0)
(0.3153818116 -0.07052213812 0)
(0.2708520277 -0.1300437012 0)
(0.1990331851 -0.216188433 0)
(0.1021793499 -0.3381519213 0)
(0.003869716159 -0.4565886478 0)
(-0.01608123208 -0.3690231718 0)
(-0.02414544016 0.208442038 0)
(-0.03778822618 0.2305356864 0)
(0.03734092531 0.1765571249 0)
(0.1249296532 0.1366878289 0)
(0.205384402 0.1087495225 0)
(0.2771828671 0.08783627737 0)
(0.3410474031 0.07175041064 0)
(0.3973237954 0.05889053723 0)
(0.44611017 0.0478557761 0)
(0.4871806555 0.03750427897 0)
(0.5199147978 0.02685343223 0)
(0.5430569117 0.01502630998 0)
(0.5546800879 0.001126858965 0)
(0.552085054 -0.01592949762 0)
(0.5314062981 -0.03797898638 0)
(0.4871220304 -0.06894367055 0)
(0.4107401692 -0.1190178456 0)
(0.2905903346 -0.2093489703 0)
(0.1329619128 -0.3382996752 0)
(0.03863162079 -0.3403008585 0)
(0.241931064 0.1091868189 0)
(0.3136157896 0.09719485239 0)
(0.4445502951 0.05700293672 0)
(0.5498183495 0.03509982277 0)
(0.6240963463 0.02369802425 0)
(0.6794142371 0.01665312581 0)
(0.7230533357 0.01192834702 0)
(0.7581622958 0.008663540576 0)
(0.7863249246 0.00625643391 0)
(0.8083565741 0.004266026102 0)
(0.8244380148 0.002386831096 0)
(0.8341812177 0.0004088536364 0)
(0.8366983728 -0.001846633519 0)
(0.8305381305 -0.004539943375 0)
(0.8133567256 -0.007997903004 0)
(0.7812241891 -0.01289302365 0)
(0.7258146354 -0.02127967868 0)
(0.6299498846 -0.0381533776 0)
(0.4592848141 -0.08562934333 0)
(0.3048811907 -0.1257103588 0)
)
;

boundaryField
{
    movingWall
    {
        type            calculated;
        value           uniform (1 0 0);
    }
    fixedWalls
    {
        type            calculated;
        value           uniform (0 0 0);
    }
    frontAndBack
    {
        type            empty;
    }
}


// ************************************************************************* //
