/*--------------------------------*- C++ -*----------------------------------*\
  =========                 |
  \\      /  F ield         | OpenFOAM: The Open Source CFD Toolbox
   \\    /   O peration     | Website:  https://openfoam.org
    \\  /    A nd           | Version:  13
     \\/     M anipulation  |
\*---------------------------------------------------------------------------*/
FoamFile
{
    format      ascii;
    class       vectorField;
    location    "27";
    object      U_all;
}
// * * * * * * * * * * * * * * * * * * * * * * * * * * * * * * * * * * * * * //


400
(
(1.092556731e-05 -3.788222809e-05 0)
(-0.0006661733007 0.0004130278216 -1.546209156e-23)
(-0.002185366018 0.0009203766499 0)
(-0.00404777301 0.00131275498 0)
(-0.005971759554 0.001535034143 6.837721822e-25)
(-0.00776263356 0.001569814164 4.152779319e-24)
(-0.009284366482 0.001423533238 -7.350007154e-24)
(-0.01043574669 0.001119701672 7.554892098e-24)
(-0.01113661584 0.0006960727696 -2.097366122e-25)
(-0.01132692001 0.0002030790359 -3.99758303e-24)
(-0.01097159946 -0.0003002236531 5.806831576e-24)
(-0.01007218457 -0.000747501971 -5.932190986e-23)
(-0.008679776013 -0.001075547309 -6.555348007e-23)
(-0.006902793361 -0.001233030875 -7.787000795e-23)
(-0.004910721304 -0.001192629485 4.575274218e-24)
(-0.002927249027 -0.0009619182278 -4.139698511e-24)
(-0.0012053363 -0.0005912173957 -1.999939787e-22)
(-1.910793118e-05 -0.0001698948547 0)
(0.0005181258605 0.0001720708996 1.514688429e-25)
(0.0002227442056 0.0003059689198 -2.618863812e-24)
(-0.0002633960277 0.0008288830297 1.386987207e-25)
(-0.00270329208 0.003383740644 1.555917565e-23)
(-0.006907153273 0.005604360025 1.547434823e-25)
(-0.01195207283 0.007008042536 -8.479480474e-25)
(-0.01713467335 0.007553605027 1.159767757e-24)
(-0.02197487241 0.007294039921 1.30433949e-23)
(-0.02611019225 0.006321762532 1.413943748e-24)
(-0.02926502533 0.004754104784 -7.305974541e-24)
(-0.03122609281 0.002737116984 1.016464555e-23)
(-0.03184139403 0.0004524260828 4.51338471e-24)
(-0.03102705323 -0.001884074207 -6.322377621e-24)
(-0.02879268738 -0.004022923029 2.961585182e-24)
(-0.02527100624 -0.005708230027 3.896915754e-23)
(-0.02073168295 -0.006707286237 -1.955647995e-24)
(-0.01558947033 -0.006854036286 3.756268399e-24)
(-0.01038507247 -0.006097394996 -9.747112769e-23)
(-0.005730277177 -0.004546160575 9.643881868e-23)
(-0.002233402068 -0.002507434162 -3.971334169e-25)
(-0.0001818077042 -0.000502413381 4.071491941e-25)
(8.343011274e-05 0.0006098930282 0)
(-0.0004188223895 0.002934992618 -2.914363671e-25)
(-0.004647786296 0.008803787022 1.707307785e-23)
(-0.01137170348 0.01324008958 -8.233605762e-24)
(-0.01932683839 0.01579165472 -2.067653918e-25)
(-0.02747347028 0.01652961262 2.031254096e-25)
(-0.03511696914 0.01564406975 7.619859381e-27)
(-0.04171249291 0.01335970266 -1.245609532e-24)
(-0.04683467326 0.009919595897 -4.567593446e-25)
(-0.05014881221 0.00560237233 -1.064343464e-23)
(-0.05141126361 0.000744479232 0)
(-0.05047695195 -0.004241613742 0)
(-0.04733620389 -0.008886934412 2.67238562e-23)
(-0.04215857283 -0.01268146528 2.814355078e-23)
(-0.03531383691 -0.01513573746 -1.647059928e-24)
(-0.02738959443 -0.01586161306 4.848904822e-23)
(-0.01916984333 -0.01467312671 9.425232406e-23)
(-0.01156081174 -0.01169347934 3.981912906e-23)
(-0.00546539104 -0.00745071187 4.162189344e-25)
(-0.001451109744 -0.002936081334 1.063267831e-25)
(-9.072802522e-05 0.0002258293944 0)
(-0.0005024541339 0.006045193892 -4.253748004e-23)
(-0.006402588822 0.01637033751 -1.697524341e-23)
(-0.01553464319 0.02355873997 8.160493731e-24)
(-0.02627847421 0.0274409487 0)
(-0.03728656104 0.02832035056 0)
(-0.04768923897 0.02658713388 0)
(-0.05679531352 0.02263074752 -4.547413641e-26)
(-0.06405240206 0.0168358104 -2.122872522e-24)
(-0.0690093213 0.009622095012 0)
(-0.07130680114 0.001491158724 1.638826271e-24)
(-0.07070714034 -0.006936215849 2.804871178e-25)
(-0.06712913884 -0.01492975395 -2.812724752e-25)
(-0.06069798701 -0.02166675096 0)
(-0.05180665152 -0.02631549375 4.136172474e-23)
(-0.04114928728 -0.02816017964 -4.684528274e-23)
(-0.02971928562 -0.02677329037 -2.765147947e-23)
(-0.01873693158 -0.02221501532 -3.967157389e-23)
(-0.009487926214 -0.015219089 7.79573304e-25)
(-0.002976858014 -0.007298191887 9.783463552e-23)
(-0.0002318774284 -0.0008662140015 0)
(-0.0005315998931 0.01009475775 4.274439213e-23)
(-0.007983394707 0.02595153575 4.777277607e-25)
(-0.01939639618 0.03642791634 -4.668166147e-25)
(-0.03282302513 0.04185418788 0)
(-0.04664577593 0.04289385201 7.774808048e-25)
(-0.05985090375 0.04019986289 -7.667007507e-25)
(-0.07163129848 0.03434674175 3.669699552e-23)
(-0.08132574346 0.02585622242 1.845493048e-23)
(-0.08836416277 0.01527284926 6.231469984e-24)
(-0.09225284613 0.003246299079 -1.640735526e-24)
(-0.09260202249 -0.009407414546 0)
(-0.0891739223 -0.02167414255 4.375081697e-25)
(-0.08195836154 -0.03236665983 1.010539269e-23)
(-0.07126766936 -0.04021164146 -4.352390809e-23)
(-0.05781927344 -0.04401962818 1.934796193e-24)
(-0.04278518632 -0.04294757527 4.223576634e-23)
(-0.02775410734 -0.03683294171 -3.851867836e-25)
(-0.01455042628 -0.02652690936 0)
(-0.004859401215 -0.01408445227 5.436407156e-23)
(-0.0003641418329 -0.00284697648 -2.564346457e-22)
(-0.0005272075633 0.01499889618 9.836188659e-23)
(-0.00937770064 0.03738928425 -4.903744028e-25)
(-0.02288129104 0.05170096138 0)
(-0.03882954333 0.05894043423 0)
(-0.05538532637 0.06025438766 -8.729392049e-23)
(-0.07142721228 0.05661782291 -8.496381138e-23)
(-0.08606473208 0.04880077096 -4.064698278e-23)
(-0.09854886709 0.0374392279 -1.503048796e-23)
(-0.108192433 0.02315963867 -5.362360778e-24)
(-0.1143423501 0.006709859748 -8.171172953e-24)
(-0.1164025527 -0.01093238408 6.596994133e-24)
(-0.1138918013 -0.02848860998 8.819036455e-24)
(-0.1065469571 -0.04436939882 -1.892218036e-23)
(-0.09446655548 -0.05675215288 4.575468276e-24)
(-0.07826738184 -0.06378179946 0)
(-0.05922808451 -0.06393388805 -1.57617733e-23)
(-0.03933925713 -0.05653732711 -2.324844526e-26)
(-0.02114159195 -0.04235755561 0)
(-0.007318600901 -0.02398206102 -1.519934855e-22)
(-0.0005216060513 -0.005925526311 6.054779932e-22)
(-0.0004990719869 0.02064523626 -9.769190562e-23)
(-0.01052928427 0.05045315359 2.831413724e-22)
(-0.02582903074 0.06912347886 1.526579487e-22)
(-0.04402047636 0.07849079205 3.618416896e-24)
(-0.06310612623 0.08029303727 -7.31911995e-23)
(-0.08190246042 0.07587892303 9.040658302e-23)
(-0.09947577619 0.06621573931 -3.58931036e-24)
(-0.1150206747 0.05201620092 -1.728688973e-24)
(-0.1277497275 0.03392329668 2.523436328e-24)
(-0.1368450197 0.01270251418 7.379048667e-24)
(-0.1414688392 -0.01058719458 -6.496972247e-24)
(-0.1408227078 -0.0344592258 -9.779701064e-24)
(-0.1342726605 -0.05692639661 -3.261745391e-23)
(-0.1215433282 -0.07553165376 -3.656322836e-23)
(-0.1029658673 -0.08754104767 5.63545632e-25)
(-0.07976263745 -0.09039064228 0)
(-0.05426611187 -0.08244393608 0)
(-0.02987121776 -0.06397653513 -2.904929248e-24)
(-0.01066270912 -0.03798752296 2.969353297e-24)
(-0.0007350799772 -0.01050081261 1.027846785e-22)
(-0.0004479124115 0.0268718811 0)
(-0.01134903362 0.06480607653 2.001931273e-22)
(-0.02801550505 0.08829418717 8.961919578e-23)
(-0.04799774241 0.100121339 0)
(-0.06920485064 0.1027055785 1.569597431e-22)
(-0.09044225394 0.09781397587 0)
(-0.1107814301 0.08660962057 -1.428210787e-22)
(-0.1294074385 0.06983858218 6.514545262e-24)
(-0.1454750914 0.04808193607 0)
(-0.1580330422 0.0220177157 0)
(-0.1660112074 -0.007333757598 -1.37412995e-24)
(-0.1682650843 -0.03838724769 -9.313945583e-25)
(-0.1637045291 -0.06883822893 1.491609068e-22)
(-0.1515191311 -0.09558096585 -4.704571374e-23)
(-0.1315119689 -0.1148279603 -2.559838159e-24)
(-0.1045584355 -0.1225684965 1.533609061e-24)
(-0.07309267798 -0.1155502008 -1.557800642e-24)
(-0.04134974384 -0.09282997813 0)
(-0.01525212265 -0.05740701639 3.203200109e-24)
(-0.001044292271 -0.01714697754 -1.012754882e-21)
(-0.0003744698843 0.03346231436 0)
(-0.0117499146 0.07998746345 -1.128010159e-22)
(-0.02920669903 0.1086368182 -6.190523352e-22)
(-0.05031678936 0.1232209324 -3.754977871e-22)
(-0.07296222895 0.1269073296 0)
(-0.09598839508 0.1219234942 4.119093884e-22)
(-0.1185259213 0.1096332467 1.26076818e-22)
(-0.1398130454 0.09078138729 -5.581245104e-24)
(-0.1590204425 0.0658134542 5.553620941e-24)
(-0.1751443244 0.03520893593 0)
(-0.1869542071 -0.0001960453158 2.911862005e-23)
(-0.1930155038 -0.03889631898 4.695205581e-24)
(-0.1917793059 -0.07843722193 -1.076610362e-22)
(-0.181785881 -0.1151845468 8.002306305e-23)
(-0.1620556584 -0.1442577713 -2.419334923e-22)
(-0.1327050539 -0.1598526831 0)
(-0.09577803368 -0.1563093181 0)
(-0.05601581505 -0.1302965717 0)
(-0.02147838126 -0.08381042423 0)
(-0.001500364771 -0.02665489141 5.571312589e-22)
(-0.0002874011002 0.04015998183 0)
(-0.01169352409 0.09543423838 -3.492702128e-22)
(-0.02924416585 0.1294048824 8.932126166e-22)
(-0.05060906727 0.1469272285 3.616860792e-22)
(-0.07370022267 0.151972282 0)
(-0.09745072459 0.1472735442 -3.862214204e-22)
(-0.1211060464 0.1344174351 -3.174187325e-23)
(-0.1440314309 0.1141381609 3.332885095e-22)
(-0.1655132057 0.08669952843 1.769359414e-22)
(-0.1846236986 0.05229133172 -4.059895028e-23)
(-0.2001314172 0.01141786047 1.656792755e-23)
(-0.2104610869 -0.03471300054 -8.26453835e-24)
(-0.2137197139 -0.08376393217 3.371614101e-22)
(-0.2078204441 -0.1318735657 0)
(-0.1908228092 -0.1732733022 2.420503751e-22)
(-0.1616326406 -0.200256947 5.7735051e-24)
(-0.1211655173 -0.204009912 -5.859605139e-24)
(-0.07384939846 -0.1772101356 1.548028106e-22)
(-0.02971764463 -0.1188630335 -5.434184288e-24)
(-0.002179522722 -0.04005359751 0)
(-0.0002117384466 0.04671558781 0)
(-0.0112500274 0.1105478782 0)
(-0.02815622792 0.1497329287 -5.022420064e-22)
(-0.04874470635 0.1701489661 -1.880885161e-23)
(-0.07100069468 0.1766230292 2.038255635e-23)
(-0.09399426426 0.1724503203 -2.014189585e-23)
(-0.1171431217 0.1594852883 -2.316746868e-23)
(-0.1400176127 0.138479314 -3.029622853e-22)
(-0.1621325477 0.1095155292 6.698527549e-23)
(-0.1827955745 0.07245196718 4.512886442e-23)
(-0.2009832396 0.02734997829 -4.577422622e-23)
(-0.2152267098 -0.02508576459 0)
(-0.2235558785 -0.08298186059 -7.838576461e-23)
(-0.2234628231 -0.1427237225 0)
(-0.2120674801 -0.1981798113 -3.739311372e-22)
(-0.1867429429 -0.2400749467 5.244487982e-22)
(-0.1464433294 -0.2560749537 0)
(-0.09394528139 -0.23311887 -1.493587025e-22)
(-0.04021980131 -0.1639599298 1.937129423e-22)
(-0.003201076486 -0.05861012003 -3.411110285e-22)
(-0.0002015659244 0.05297507561 0)
(-0.01067273008 0.1248153563 9.182460834e-22)
(-0.02628466832 0.1687399263 -2.440566223e-23)
(-0.04501134295 0.1916427472 9.192931845e-22)
(-0.06494628302 0.1992894464 -2.511963858e-23)
(-0.08536663103 0.1956081377 2.838707165e-23)
(-0.105930955 0.1827869259 -2.812794475e-23)
(-0.1264928657 0.1616572202 -1.660841781e-23)
(-0.1469001975 0.1321757506 -5.259993953e-22)
(-0.1668463912 0.09389660748 -8.906233168e-24)
(-0.1857309196 0.04640645535 9.659786681e-24)
(-0.2024787923 -0.01023669362 3.312958882e-22)
(-0.2154160338 -0.07499667238 -5.820492882e-22)
(-0.2220214239 -0.1450293523 0)
(-0.2188034868 -0.2146739899 8.886847555e-22)
(-0.2016258258 -0.2739993959 -4.940448754e-22)
(-0.1668638158 -0.3075788914 -1.572081874e-23)
(-0.1140218181 -0.2953790604 0)
(-0.05288466738 -0.2195786719 -1.889770192e-22)
(-0.004749165546 -0.08377216098 3.360175315e-22)
(-0.0003642284109 0.05902249166 1.550946683e-23)
(-0.01049594135 0.1379864307 -8.763807445e-22)
(-0.02441431036 0.1856780537 -1.157016461e-21)
(-0.04026785713 0.2101358738 -8.6286057e-22)
(-0.05630808065 0.2182323867 0)
(-0.07214950085 0.2146168817 3.513664831e-23)
(-0.08779328846 0.2018775827 -7.294578926e-23)
(-0.1034574791 0.1809995693 5.867659351e-23)
(-0.1193997031 0.1518993643 3.021244747e-22)
(-0.1357945645 0.1139152803 -1.128155541e-23)
(-0.1526097007 0.06621496522 0)
(-0.1694536075 0.008178300668 -3.603798578e-22)
(-0.1852774598 -0.06015849708 7.515431383e-22)
(-0.1980461012 -0.1372731178 8.831450344e-22)
(-0.2043556372 -0.2189244412 -5.296387985e-22)
(-0.1990984639 -0.2959693947 5.162472187e-22)
(-0.1760609064 -0.3514052504 1.078101719e-23)
(-0.130089158 -0.3584131067 -1.095414652e-23)
(-0.06688798233 -0.2843260547 -8.219234048e-23)
(-0.007083302985 -0.1169957537 0)
(-0.0009096102327 0.06539986528 -1.911421657e-23)
(-0.01167619507 0.1502801863 -1.326924794e-21)
(-0.02388942081 0.2000639012 1.094197383e-21)
(-0.03601432439 0.2244193896 6.734717094e-22)
(-0.04657429471 0.2316565901 6.014440347e-22)
(-0.05577183886 0.2272374659 6.643744207e-22)
(-0.06411411562 0.2141760857 -4.458530665e-23)
(-0.07227744131 0.1936486264 -3.461234223e-22)
(-0.08097168277 0.1656026109 2.152101464e-22)
(-0.09087396051 0.1292710473 0)
(-0.1025568193 0.08353156541 0)
(-0.1163642693 0.0272011526 2.65533715e-22)
(-0.1321609235 -0.04061883114 8.194427778e-23)
(-0.148927036 -0.1200115065 -2.821506715e-22)
(-0.16412998 -0.2089286841 -5.411131341e-23)
(-0.1727889726 -0.3006977916 1.30196261e-22)
(-0.1670319395 -0.379331345 -3.400304188e-22)
(-0.1365296441 -0.4136435769 -1.59567801e-23)
(-0.08018258699 -0.3538311811 8.208001373e-23)
(-0.010507618 -0.1594123604 -6.032501647e-22)
(-0.002260530957 0.07348845608 0)
(-0.01580388461 0.1626510675 2.145812732e-21)
(-0.02665115781 0.2117888237 0)
(-0.03422454437 0.2333928196 -1.351768652e-21)
(-0.03759551153 0.2377748086 6.184151946e-23)
(-0.03799869667 0.2312537517 -6.192895195e-22)
(-0.0366847441 0.2171887351 -4.756149818e-22)
(-0.03489262046 0.1968928186 8.301019171e-22)
(-0.03379074199 0.1703341291 -1.885644301e-22)
(-0.03450116263 0.1367224665 0)
(-0.03811810387 0.09479746122 0)
(-0.04565222646 0.04304383115 2.410667699e-23)
(-0.0579102253 -0.0201367298 -6.007071347e-22)
(-0.07514799585 -0.09620540937 -4.309472274e-22)
(-0.09645352495 -0.1855545587 4.637775642e-22)
(-0.1183477233 -0.2853557386 -6.488529709e-22)
(-0.1332726187 -0.3838375669 9.11953777e-23)
(-0.126535736 -0.4504347225 2.939267191e-23)
(-0.0889917609 -0.4198525059 5.660590196e-22)
(-0.01526919175 -0.2111713456 6.021133745e-22)
(-0.005180927409 0.08598026898 0)
(-0.0252558429 0.1766284008 1.465587356e-22)
(-0.03483485601 0.2205949764 -4.917024707e-23)
(-0.03640138413 0.2354844975 7.642725777e-22)
(-0.03018650949 0.2343392204 -7.005182895e-22)
(-0.01916783527 0.2241591256 4.746354019e-23)
(-0.005617433038 0.2083516638 -1.018591824e-22)
(0.008567167229 0.1881236118 -3.389797113e-22)
(0.0217963424 0.1633910643 2.062775312e-22)
(0.03262532486 0.1333246018 0)
(0.03958218943 0.09664149478 0)
(0.04116788212 0.05174138847 -2.902612825e-22)
(0.0357827511 -0.003254504343 0)
(0.02197994871 -0.07058273097 -5.51210484e-22)
(-0.001266522855 -0.1525727564 -1.49224061e-23)
(-0.0331061103 -0.250594279 2.559650295e-23)
(-0.06909348579 -0.3599334707 2.202984073e-22)
(-0.09227900832 -0.4575417885 4.788988733e-24)
(-0.08718119948 -0.4698121976 -5.789569228e-22)
(-0.0210313028 -0.2698967443 0)
(-0.01111633019 0.1085974804 0)
(-0.04248929301 0.1947148287 -8.848293921e-22)
(-0.04795596891 0.2258188478 -5.410942809e-22)
(-0.03919649347 0.2282126037 4.543724925e-22)
(-0.01877987262 0.2182317937 -1.710013999e-24)
(0.007662375911 0.2028211135 -4.560941256e-23)
(0.03667773783 0.1847612864 5.696537053e-22)
(0.06582763915 0.1647114195 -2.766825955e-23)
(0.09326891659 0.1423127451 -2.069733693e-22)
(0.1173868273 0.1166277244 3.142149074e-23)
(0.1365439677 0.0864119117 -3.425854436e-23)
(0.1489649067 0.05017732048 -3.690536304e-23)
(0.1525257778 0.00615986192 3.205585503e-22)
(0.1449351349 -0.04796060321 6.119514913e-22)
(0.1235146263 -0.1153047198 -5.101088966e-22)
(0.08633421909 -0.2004191162 -1.616001085e-22)
(0.03198991786 -0.306780312 1.531358911e-22)
(-0.02362192853 -0.4239833652 7.293729833e-23)
(-0.06492441398 -0.4871608818 1.91330168e-21)
(-0.02509975598 -0.3291541639 2.955002848e-21)
(-0.02004679438 0.1460728325 -4.390151994e-23)
(-0.06416418815 0.2112955278 4.4173244e-23)
(-0.05070271055 0.2177297406 1.000172367e-21)
(-0.01934173275 0.2014674813 -8.269665741e-24)
(0.02414351214 0.180907002 0)
(0.07153973515 0.1606927386 4.36361785e-23)
(0.1190685904 0.1416490726 -2.273796215e-22)
(0.1644748164 0.1233178829 -9.027730384e-23)
(0.2062231369 0.1048116409 3.68064552e-23)
(0.2429623649 0.08507151586 -1.701621536e-23)
(0.2732189472 0.06296176014 3.429907669e-23)
(0.2952519961 0.03726333432 -6.592568834e-23)
(0.3066957002 0.006535512527 -9.303779453e-23)
(0.3049726457 -0.03087727196 1.517018468e-22)
(0.2863926602 -0.07786255377 0)
(0.2470560396 -0.1399297907 1.505547704e-22)
(0.181091601 -0.226629863 2.560017776e-22)
(0.0960440374 -0.344389357 0)
(-0.006697853651 -0.455220875 -3.675651001e-21)
(-0.01922412088 -0.377753623 -2.892631927e-21)
(-0.02591948458 0.2276829765 -9.514167747e-22)
(-0.03998319988 0.2238217193 -1.388961632e-22)
(0.03656132001 0.1810584772 -2.335541732e-22)
(0.1090500513 0.145105725 -1.193720648e-22)
(0.1817185975 0.1172442838 -4.295741935e-23)
(0.2490082659 0.0962787946 9.782908828e-23)
(0.310032614 0.08002486324 -1.40855265e-22)
(0.3646196971 0.06656799173 1.297142213e-22)
(0.4126239199 0.05449172876 -8.619913474e-23)
(0.4536236999 0.04270899166 1.132187415e-25)
(0.4867866243 0.03032311294 1.527713197e-23)
(0.5107440341 0.01652920565 7.997066182e-23)
(0.5236588359 0.0005367136076 -1.811094345e-22)
(0.5231791077 -0.01863353847 -1.617120536e-22)
(0.505231832 -0.0428646328 -4.262802054e-23)
(0.465871149 -0.0763322133 0)
(0.3952693895 -0.1286089073 -1.846507426e-22)
(0.2916069088 -0.2208468007 8.148793104e-22)
(0.1197453918 -0.3525016819 1.631606502e-21)
(0.02670544259 -0.3775497801 2.172658317e-21)
(0.2142894768 0.1347447496 9.864948605e-22)
(0.2776312116 0.0987050728 0)
(0.4316593329 0.05810416572 -2.594285957e-22)
(0.5304749781 0.03846264366 -1.741634224e-22)
(0.6016964976 0.02623416766 0)
(0.6571196691 0.01831920489 -6.008918781e-23)
(0.7015209925 0.01313598278 6.377809986e-23)
(0.7376037764 0.009542112199 -1.800102984e-23)
(0.7669363129 0.00680446526 2.885892619e-23)
(0.7902101409 0.004464761349 2.314976088e-23)
(0.8074550257 0.002221349851 0)
(0.8182617496 -0.000150037216 -2.87297882e-23)
(0.8216496966 -0.00272380857 0)
(0.8162392599 -0.005712638646 2.738069889e-23)
(0.7991332465 -0.00961136512 1.421624344e-23)
(0.7679986272 -0.01500254625 -5.799466957e-23)
(0.7106555917 -0.02502520729 -2.535678379e-22)
(0.6235184084 -0.04204286323 -6.918124957e-22)
(0.4230091007 -0.09182969032 0)
(0.270567466 -0.1524021884 -2.119486123e-21)
)


// ************************************************************************* //
