/*--------------------------------*- C++ -*----------------------------------*\
  =========                 |
  \\      /  F ield         | OpenFOAM: The Open Source CFD Toolbox
   \\    /   O peration     | Website:  https://openfoam.org
    \\  /    A nd           | Version:  13
     \\/     M anipulation  |
\*---------------------------------------------------------------------------*/
FoamFile
{
    format      ascii;
    class       volScalarField;
    location    "47";
    object      p;
}
// * * * * * * * * * * * * * * * * * * * * * * * * * * * * * * * * * * * * * //

dimensions      [0 2 -2 0 0 0 0];

internalField   nonuniform List<scalar> 
400
(
1.923205336e-07
-0.0005298138598
-0.001177233644
-0.001679085751
-0.001915434751
-0.00183678931
-0.001418512775
-0.0006495053094
0.0004612581332
0.00186957167
0.003480918815
0.005144180204
0.006662687772
0.007826003851
0.008460379825
0.008485455182
0.007957595579
0.007083700309
0.006196800976
0.005642739437
0.0005379254662
-1.076858841e-05
-0.000582826924
-0.0009838722869
-0.001161827366
-0.001089761524
-0.0007463384713
-0.0001163005437
0.000800866841
0.001976098363
0.003335763933
0.004754529072
0.006062678699
0.007074580842
0.007634570543
0.007669261754
0.007225899542
0.006477314344
0.005685584996
0.00512195638
0.001210604821
0.0005243012309
-8.018468756e-05
-0.000446091731
-0.0006088483822
-0.000575919074
-0.0003317602975
0.0001464541817
0.0008754319206
0.001847975161
0.003014469511
0.004271174873
0.005463286188
0.006409640853
0.006948263041
0.006991166438
0.006565215743
0.005811260213
0.00493483083
0.004200790082
0.001694089372
0.0008091711914
8.66998651e-05
-0.0003225995992
-0.0005331739945
-0.0005853600337
-0.00046709658
-0.000143221822
0.0004254478361
0.001258964463
0.002333140977
0.003560406883
0.004786151996
0.005809867549
0.006433019298
0.006523485745
0.006069818574
0.005185861657
0.004057310392
0.003020962328
0.001732080563
0.0006464243628
-0.0002200070898
-0.0007169020576
-0.001025978724
-0.001212741784
-0.001262504798
-0.001121513594
-0.0007211756037
-6.839741908e-06
0.001029344655
0.002319809212
0.003707034852
0.004957968166
0.00581235769
0.006060532838
0.005621997462
0.004571085392
0.003093477109
0.001658900923
0.001112015131
-0.0001523776077
-0.001164053967
-0.001778385166
-0.002233674065
-0.002612433396
-0.002891005464
-0.002990654559
-0.002805447006
-0.002235444911
-0.001227299861
0.0001859448052
0.001852886813
0.003504986825
0.004797843542
0.005402138034
0.00511775151
0.003941158926
0.002055151285
0.0001241292425
-0.0003446729479
-0.001755363963
-0.002905312017
-0.003664337291
-0.004317645152
-0.004958520185
-0.00555010924
-0.005983782704
-0.006108150606
-0.00576396574
-0.004830843665
-0.003283238572
-0.001238828188
0.001010177303
0.003020170546
0.00429205731
0.004428770864
0.003270364403
0.0009571927978
-0.001581384763
-0.002775022661
-0.004293314892
-0.005570478813
-0.006500811369
-0.00740807651
-0.008393368102
-0.009406152218
-0.01030617415
-0.01089015299
-0.01092468884
-0.01019615945
-0.008579073924
-0.006114572634
-0.003081052685
-1.529475917e-05
0.00236655154
0.003365467296
0.0025283149
-0.000151128738
-0.00340936422
-0.006262545581
-0.007845075509
-0.009232752867
-0.01035438532
-0.01156664787
-0.01298008846
-0.01453493942
-0.01606234927
-0.01730492699
-0.0179428336
-0.01764150652
-0.01612925761
-0.01330607155
-0.009367150119
-0.004896661225
-0.0008470566647
0.001663690773
0.00168325684
-0.001149200618
-0.005203740487
-0.01082753626
-0.01242668104
-0.01389540913
-0.01520600905
-0.01674826155
-0.01865022097
-0.02085288627
-0.02316722205
-0.02528562347
-0.02679662815
-0.02722374118
-0.02610483942
-0.02312817972
-0.01830392439
-0.01216270575
-0.005847731303
-0.0009819776856
0.0007231385111
-0.001794658517
-0.006613469498
-0.01642723365
-0.01798996159
-0.01948358674
-0.02093147845
-0.02276874452
-0.0251580777
-0.02805646582
-0.03126709077
-0.03444146611
-0.03708045609
-0.03855843953
-0.03819304403
-0.03540752808
-0.02990795934
-0.02202186234
-0.01294234858
-0.00478496815
-0.0002707436075
-0.001644778968
-0.006960804128
-0.02297511066
-0.0244377974
-0.02585040223
-0.02729616927
-0.02929074978
-0.03206132824
-0.03559944641
-0.03971266137
-0.04402177403
-0.0479499808
-0.05073285793
-0.0514749085
-0.04926213303
-0.04345077977
-0.03399098536
-0.02189291009
-0.009592723379
-0.0009490261914
7.661430101e-05
-0.005045769539
-0.03039081812
-0.03166192189
-0.03279934678
-0.03396685737
-0.03583585692
-0.03874340093
-0.04273247665
-0.0476193305
-0.05299666574
-0.05821697946
-0.06238845237
-0.06441096181
-0.06308226684
-0.0573379699
-0.04663832065
-0.03155557321
-0.01451383234
-0.0003923055127
0.004713318654
0.001132691798
-0.0387025513
-0.03960843914
-0.04011761732
-0.04053496892
-0.04182195348
-0.04448111785
-0.04861040138
-0.05402036423
-0.06026023452
-0.06660429063
-0.07203931568
-0.07528370235
-0.07487205272
-0.06935434547
-0.05766635812
-0.03975612294
-0.01762827299
0.003241377451
0.01453038178
0.01473374648
-0.04825021182
-0.04838061168
-0.04761036057
-0.04654093898
-0.04661934287
-0.04854820384
-0.05244639168
-0.05807275373
-0.06489168143
-0.07206911386
-0.07845612554
-0.08259483029
-0.08278199742
-0.07723443207
-0.06441274343
-0.04359557395
-0.01603290821
0.01287470584
0.03297701757
0.04029452053
-0.06003228131
-0.05840591523
-0.05514420854
-0.05151067548
-0.04963533135
-0.05034888299
-0.05368156057
-0.0592528175
-0.06637453508
-0.07405347606
-0.0809694145
-0.08546801516
-0.08560619663
-0.07929176881
-0.06457254198
-0.04012668389
-0.006308058915
0.03226479623
0.06446283022
0.08325713497
-0.07629598388
-0.07075147478
-0.06268878366
-0.05499860779
-0.05041187423
-0.04953891131
-0.05210150941
-0.0574524812
-0.06466828295
-0.07253942299
-0.0795347665
-0.08377261247
-0.0830413213
-0.07490569386
-0.0569762566
-0.02734268536
0.01456090076
0.06548261925
0.1143782842
0.1501780022
-0.1041972235
-0.08796269057
-0.07000212559
-0.05628196956
-0.04838241482
-0.04579334848
-0.04760646897
-0.05275427687
-0.0599914341
-0.06785622763
-0.07459983249
-0.07811388111
-0.07591070875
-0.06515018959
-0.04284674651
-0.006184127059
0.04677837688
0.115341098
0.1914929444
0.2583019607
-0.1759964326
-0.1149067927
-0.07361785153
-0.05189005045
-0.04118076478
-0.03758034676
-0.03929966327
-0.0447610388
-0.05235221697
-0.0603995401
-0.06701761913
-0.06995672429
-0.0665390266
-0.05358884126
-0.02738029332
0.01642323206
0.08275749659
0.1774015674
0.3054469651
0.4527022765
-0.3558672857
-0.1552705541
-0.07044022543
-0.04278273346
-0.03135003208
-0.02760688941
-0.02979410938
-0.03598682324
-0.04424100648
-0.05275457591
-0.05961305064
-0.06255545163
-0.05885458179
-0.04518109083
-0.01724442554
0.03082391854
0.1084415938
0.2333779006
0.434823912
0.7358886792
)
;

boundaryField
{
    movingWall
    {
        type            zeroGradient;
    }
    fixedWalls
    {
        type            zeroGradient;
    }
    frontAndBack
    {
        type            empty;
    }
}


// ************************************************************************* //
