/*--------------------------------*- C++ -*----------------------------------*\
  =========                 |
  \\      /  F ield         | OpenFOAM: The Open Source CFD Toolbox
   \\    /   O peration     | Website:  https://openfoam.org
    \\  /    A nd           | Version:  13
     \\/     M anipulation  |
\*---------------------------------------------------------------------------*/
FoamFile
{
    format      ascii;
    class       surfaceScalarField;
    location    "47";
    object      phi;
}
// * * * * * * * * * * * * * * * * * * * * * * * * * * * * * * * * * * * * * //

dimensions      [0 3 -1 0 0 0 0];

internalField   nonuniform List<scalar> 
760
(
4.675435108e-06
-4.67474983e-06
-3.887728006e-05
4.35526428e-05
-0.0001318042563
9.292653781e-05
-0.0002581261755
0.0001263215813
-0.0004018672972
0.0001437407785
-0.0005495974482
0.0001477288452
-0.0006893931889
0.0001397951811
-0.0008094592353
0.0001200666199
-0.0008975686777
8.810999321e-05
-0.0009417698586
4.420166684e-05
-0.0009323184875
-9.450484284e-06
-0.0008644699209
-6.784884543e-05
-0.0007413043372
-0.0001231667881
-0.0005756198918
-0.0001656842668
-0.0003897382303
-0.000185880737
-0.0002124147868
-0.0001773234012
-7.286027268e-05
-0.0001395547595
7.166572509e-06
-8.002619608e-05
2.280741074e-05
-1.563984035e-05
2.280689254e-05
-4.740170761e-05
4.27265648e-05
-0.0002103763227
0.0002065268595
-0.0004753980744
0.0003579478893
-0.0008097451725
0.0004606661657
-0.001178972627
0.0005129676491
-0.001551388481
0.0005201440422
-0.001897349232
0.000485755585
-0.002187809511
0.0004105282775
-0.00239423609
0.0002945392046
-0.002490673332
0.0001406397952
-0.002457808724
-4.231519777e-05
-0.002288133587
-0.0002375245342
-0.001990972733
-0.0004203295196
-0.001595452391
-0.0005612055096
-0.001149709595
-0.0006316221659
-0.000714783333
-0.000612247734
-0.0003528669664
-0.0005014700894
-0.0001114060891
-0.0003214864891
-5.739916835e-06
-0.0001213068675
1.706649517e-05
-0.0001123845548
0.0001551110103
-0.000407385923
0.0005015263309
-0.0008386487263
0.0007892101346
-0.001356828059
0.0009788446392
-0.001914732513
0.001070871585
-0.002468642182
0.001074052985
-0.002977039989
0.0009941541862
-0.003399410887
0.0008329016046
-0.003696809776
0.0005919412094
-0.003834783874
0.0002786138147
-0.0037883211
-8.878092604e-05
-0.003547903117
-0.0004779448297
-0.003125375555
-0.0008428569255
-0.002557865531
-0.001128713509
-0.001907676431
-0.001281809617
-0.001255941094
-0.001263982367
-0.0006887089372
-0.001068701313
-0.0002766646741
-0.0007335297654
-5.333179828e-05
-0.0003446409258
-3.626472889e-05
-0.0001742451574
0.0003293558972
-0.0005967557769
0.0009240382182
-0.001184970994
0.001377425942
-0.001870509336
0.001664382613
-0.002595001203
0.001795362394
-0.00330648445
0.00178553686
-0.00395613411
0.001643806406
-0.004496469913
0.001373238575
-0.004881880148
0.0009773513827
-0.005071600194
0.0004683318657
-0.005034711131
-0.0001256721148
-0.00475648962
-0.0007561674522
-0.004245256949
-0.001354088993
-0.003538303631
-0.001835665431
-0.002704621513
-0.002115491568
-0.001841070301
-0.002127533649
-0.001058653876
-0.001851116321
-0.0004585039069
-0.00133367988
-0.0001036650778
-0.0006994792259
-0.0001399295722
-0.0002293007317
0.0005586568533
-0.0007670333878
0.001461771259
-0.00149732589
0.002107718836
-0.002333345208
0.002500402779
-0.003207038707
0.002669056149
-0.004061016461
0.002639514885
-0.004842660322
0.002425451296
-0.00550091858
0.002031496542
-0.005985917155
0.001462349838
-0.006251139762
0.0007335524165
-0.006257800903
-0.0001190124123
-0.005981157917
-0.001032810133
-0.005418782213
-0.001916463404
-0.004599746454
-0.002654700603
-0.003592566473
-0.003122672188
-0.002507053971
-0.003213045623
-0.001483565525
-0.002874602616
-0.0006652727863
-0.002151973689
-0.0001585290607
-0.001206221023
-0.000298459629
-0.0002756707224
0.0008343285953
-0.0009114786769
0.00209758054
-0.001763721192
0.002959962731
-0.002729928941
0.003466610454
-0.003734617775
0.003673745204
-0.00471761587
0.003622513438
-0.005625529584
0.003333365688
-0.006406603403
0.002812568868
-0.007008684719
0.00206443098
-0.007379831951
0.001104698594
-0.007471436828
-2.740754555e-05
-0.007243988932
-0.001260256653
-0.006676846317
-0.002483604984
-0.005781325485
-0.00355022169
-0.004615926568
-0.004288071214
-0.003297645316
-0.004531325442
-0.001998942369
-0.004173303954
-0.0009185854489
-0.00323233174
-0.0002254577477
-0.001899347231
-0.0005239185238
-0.0003114295424
0.001145758739
-0.001023786923
0.002809938834
-0.001972375563
0.003908551732
-0.003042995936
0.004537229322
-0.004155443755
0.004786192206
-0.005249380625
0.004716450636
-0.006273477159
0.004357463381
-0.00717813073
0.003717221045
-0.007911308172
0.002797608789
-0.008417008382
0.001610399384
-0.008636271201
0.0001918572218
-0.008512103692
-0.001384421489
-0.007999183286
-0.002996524679
-0.007080841514
-0.00446856486
-0.005792294134
-0.005576618908
-0.004245292495
-0.00607832606
-0.002640348124
-0.005778248023
-0.001243886953
-0.004628793657
-0.0003138921649
-0.002829344132
-0.0008378105247
-0.0003346575949
0.001480416474
-0.001097848922
0.003573129518
-0.002111363958
0.004922065262
-0.003253394987
0.005679259663
-0.004441703248
0.005974500445
-0.005618236039
0.005892984669
-0.006736481462
0.005475711088
-0.007752132054
0.004732871575
-0.008616648789
0.003662127128
-0.009273208531
0.002266961334
-0.009655151443
0.0005738020295
-0.009688366007
-0.001351206387
-0.009299825519
-0.003385066818
-0.00843572259
-0.005332670148
-0.007091641163
-0.006920701256
-0.005352923235
-0.007817045027
-0.003431561145
-0.007699611717
-0.001665418647
-0.006394936414
-0.0004341660391
-0.004060600173
-0.001271975851
-0.0003441084779
0.001824524945
-0.001129232322
0.004358251425
-0.002170834304
0.005963664722
-0.00334312679
0.006851552486
-0.004564128249
0.007195502501
-0.005780224673
0.007109082536
-0.006952359387
0.006647847723
-0.008044982528
0.005825494769
-0.009017534147
0.004634679522
-0.009817889809
0.003067318609
-0.01037777246
0.001133685214
-0.01061142494
-0.001117556317
-0.01042035933
-0.003576135557
-0.009708819251
-0.006044211194
-0.008416649153
-0.008212871659
-0.006574006261
-0.009659688833
-0.00437077022
-0.009902848624
-0.002201071908
-0.008564633871
-0.0005971135076
-0.005664557378
-0.001869090131
-0.000340311886
0.002164836466
-0.001117844183
0.005135781578
-0.002147126835
0.006992945374
-0.003300937074
0.008005363544
-0.004499380787
0.008393947009
-0.005695213556
0.008304916296
-0.006859349436
0.007811983665
-0.007968586412
0.006934730923
-0.008995542182
0.005661634439
-0.009900044537
0.00397182032
-0.01062153066
0.001855171175
-0.01107298373
-0.0006661041047
-0.01114002989
-0.003509089011
-0.01068804292
-0.006496195119
-0.009591114382
-0.009309798945
-0.007793720963
-0.01145708211
-0.005413360147
-0.01228320859
-0.002854544746
-0.01112344907
-0.0008134582042
-0.00770564072
-0.002682549848
-0.0003270549894
0.002491890593
-0.001071457754
0.005880182347
-0.002048136402
0.007969622436
-0.003129493871
0.009086721166
-0.004239526843
0.009503979778
-0.005339576084
0.009404965309
-0.006413114058
0.008885519616
-0.007452711891
0.007974328006
-0.008449208792
0.006658132315
-0.009381939526
0.004904551182
-0.01020903499
0.00268226672
-0.01085580431
-1.93336059e-05
-0.01120913867
-0.003155751473
-0.01110887545
-0.006596455359
-0.01036645841
-0.01005221685
-0.008819031626
-0.01300451053
-0.006453670657
-0.01464856959
-0.003603005767
-0.01397411664
-0.001092109715
-0.01021654056
-0.003774660241
-0.0003132972557
0.002805187172
-0.001009847489
0.006576731048
-0.001899020451
0.008858793382
-0.002852453323
0.01004015324
-0.003801009648
0.01045253517
-0.00471822526
0.01032218034
-0.005603321494
0.009770613727
-0.006467686496
0.008838692351
-0.007324214262
0.007514662327
-0.008177621867
0.005757961446
-0.009013712399
0.003518358621
-0.009787478915
0.0007544342672
-0.01040307989
-0.002540149569
-0.01070223297
-0.006297305236
-0.01045417582
-0.01030027834
-0.009388306962
-0.01407038186
-0.007313400403
-0.01672347557
-0.004380777844
-0.0169067395
-0.001436193455
-0.01316112811
-0.005210853345
-0.0003158864026
0.003121072786
-0.0009694927902
0.007230335668
-0.001747118311
0.009636415752
-0.00251893872
0.01081197175
-0.003229186513
0.01116278194
-0.00387034106
0.01096333472
-0.004462006746
0.01036227911
-0.00503707432
0.009413760773
-0.005632311789
0.008109900886
-0.006280308542
0.006405958705
-0.007000197566
0.004238248203
-0.007784651793
0.001538890599
-0.008579213729
-0.001745585708
-0.009255661709
-0.005620859861
-0.009580508521
-0.009975431132
-0.009205849819
-0.01444503817
-0.007746627633
-0.01818269634
-0.005063577298
-0.0195897901
-0.001835082527
-0.01638962105
-0.007045936368
-0.0003640108554
0.003485082283
-0.001008883867
0.007875206646
-0.001664107603
0.01029163694
-0.002201370195
0.01134923247
-0.002592426246
0.01155383644
-0.002860710066
0.01123161827
-0.003053021075
0.01055459085
-0.003226168094
0.00958691008
-0.003440355072
0.00832409039
-0.003754400722
0.006720005287
-0.004219846421
0.004703694238
-0.004871023156
0.00219006818
-0.005706857105
-0.0009097521401
-0.00665899585
-0.004668724305
-0.007541184314
-0.009093241835
-0.007990584253
-0.01399563742
-0.00746349821
-0.01870978514
-0.005459560795
-0.02159373141
-0.00225027492
-0.0195989111
-0.00929621215
-0.0005059732746
0.003991054174
-0.001212167865
0.008581399506
-0.001738631739
0.01081810006
-0.001975880553
0.01158648204
-0.00195215664
0.01153011137
-0.001741100284
0.01102056103
-0.001425648617
0.01023913969
-0.001088489527
0.009249751618
-0.0008108445897
0.008046444488
-0.0006727550074
0.006581915233
-0.0007521804647
0.004783122234
-0.001120759396
0.002558650453
-0.001832379949
-0.0001981307412
-0.002896290979
-0.00360481342
-0.00422032341
-0.007769210388
-0.005510243117
-0.01270572031
-0.006156890618
-0.01806313924
-0.005305699411
-0.02244491882
-0.002592609658
-0.02231200191
-0.01188881856
-0.0008114242776
0.004802477745
-0.001675824076
0.009445798109
-0.002030924253
0.0111731992
-0.001846834546
0.01140239556
-0.001265268089
0.01094854623
-0.0004371625908
0.01019245461
0.0005095900201
0.009292386329
0.001466626924
0.008292715409
0.002336556765
0.007176515389
0.003025586138
0.005892887073
0.003438430259
0.004370280345
0.003476237769
0.002520841138
0.003039329815
0.0002387714389
0.002041930506
-0.002607412488
0.0004567433394
-0.006184022184
-0.001570839382
-0.01067813458
-0.003507843294
-0.01612613115
-0.004258644654
-0.02169411564
-0.002688751144
-0.02388189775
-0.01457756979
-0.00134795584
0.006150433431
-0.002415587788
0.0105134308
-0.00237867021
0.01113627987
-0.001484918519
0.0105086436
-9.095919591e-05
0.009554588427
0.001551673806
0.008549822427
0.003273504119
0.007570556881
0.004950954697
0.006615264663
0.006482678801
0.005644789663
0.007773496156
0.004602069179
0.008723315059
0.003420463181
0.009219868777
0.002024287719
0.009134149288
0.000324489849
0.008322733566
-0.001795990448
0.006646612502
-0.004507905647
0.004056696076
-0.008088224104
0.0008486444123
-0.01291808258
-0.00188111239
-0.01896435833
-0.002254659143
-0.02350835055
-0.01683222806
-0.002135143899
0.008285577117
-0.002920024107
0.01129831398
-0.001682736832
0.009898991952
0.0005420747338
0.008283830038
0.003125659438
0.006971003424
0.005777018197
0.005898464656
0.008342686445
0.00500488916
0.0107256964
0.004232253223
0.01285144837
0.003519035054
0.01464668108
0.002806836478
0.01602569483
0.002041452917
0.01688172468
0.001168258893
0.01707802379
0.0001281900327
0.01644322826
-0.00116118984
0.01476225607
-0.002826932298
0.01180099195
-0.005126956795
0.007468359784
-0.008585449117
0.002451101301
-0.01394710127
-0.0008821439814
-0.02017510522
-0.01771437081
-0.002488280975
0.0107738572
-1.291586905e-05
0.00882295279
0.004177779218
0.005708301867
0.008328985552
0.004132625232
0.01212538055
0.003174607585
0.01553546548
0.002488378577
0.01855960246
0.001980750825
0.02120287677
0.001588977495
0.02346147798
0.001260432955
0.02531228555
0.0009560284854
0.02670814337
0.0006455938382
0.02757179864
0.0003046029695
0.02779084617
-9.085514465e-05
0.02720600204
-0.0005763459859
0.02558055055
-0.001201476842
0.02255314237
-0.00209954873
0.01762208826
-0.003654392529
0.01040335635
-0.006728372989
0.002476232543
-0.01224797809
-0.0152381405
0.01077385662
0.01959680871
0.02530511138
0.02943773713
0.0326123443
0.03510072247
0.03708147289
0.03867044911
0.0399308821
0.04088691318
0.04153250822
0.04183711044
0.04174625819
0.04116990839
0.03996843148
0.03786888024
0.03421448996
0.0274861172
0.01523814061
)
;

boundaryField
{
    movingWall
    {
        type            calculated;
        value           uniform 0;
    }
    fixedWalls
    {
        type            calculated;
        value           uniform 0;
    }
    frontAndBack
    {
        type            empty;
    }
}


// ************************************************************************* //
