/*--------------------------------*- C++ -*----------------------------------*\
  =========                 |
  \\      /  F ield         | OpenFOAM: The Open Source CFD Toolbox
   \\    /   O peration     | Website:  https://openfoam.org
    \\  /    A nd           | Version:  13
     \\/     M anipulation  |
\*---------------------------------------------------------------------------*/
FoamFile
{
    format      ascii;
    class       surfaceScalarField;
    location    "47";
    object      phi;
}
// * * * * * * * * * * * * * * * * * * * * * * * * * * * * * * * * * * * * * //

dimensions      [0 3 -1 0 0 0 0];

internalField   nonuniform List<scalar> 
760
(
-1.321876895e-05
1.321863457e-05
-7.201773837e-05
5.879896671e-05
-0.0001620727506
9.005500967e-05
-0.0002652229146
0.0001031502815
-0.0003682425166
0.0001030197217
-0.0004615043172
9.326171149e-05
-0.0005377500348
7.624541195e-05
-0.0005912422748
5.349195714e-05
-0.0006175095522
2.626727732e-05
-0.0006135895138
-3.919727946e-06
-0.0005784600423
-3.512907849e-05
-0.0005138427086
-6.461710018e-05
-0.0004246593984
-8.918335145e-05
-0.000319281732
-0.0001053779018
-0.0002092254265
-0.0001100565503
-0.0001081386084
-0.0001010869493
-2.992493932e-05
-7.821369471e-05
1.414947452e-05
-4.407442903e-05
2.190966748e-05
-7.760302506e-06
2.190951621e-05
-6.870331822e-05
8.192195746e-05
-0.0002457754988
0.0002358711567
-0.0004934732777
0.0003377525939
-0.0007722780977
0.0003819549194
-0.001050409693
0.0003811514536
-0.00130300635
0.000345858816
-0.001510604314
0.0002838437846
-0.001657872333
0.0002007599742
-0.001733200001
0.000101594497
-0.001729305909
-7.814391161e-06
-0.001643831621
-0.0001206036865
-0.00148141415
-0.0002270345029
-0.001254381844
-0.0003162153534
-0.000983294803
-0.0003764647039
-0.0006961415599
-0.0003972097919
-0.0004257314291
-0.000371497247
-0.0002049932009
-0.000298952076
-5.981217681e-05
-0.000189255498
-4.920011581e-07
-6.708041983e-05
2.141728505e-05
-0.000122934231
0.0002048561863
-0.0004149723078
0.0005279094338
-0.0008086681818
0.0007314485179
-0.001247165296
0.0008204517988
-0.0016846619
0.0008186477078
-0.002084430788
0.0007456275429
-0.002416966221
0.0006163794072
-0.002658576777
0.0004423709331
-0.002790992078
0.0002340101042
-0.002802414031
3.607602577e-06
-0.002687902617
-0.0002351152987
-0.002452962093
-0.0004619752812
-0.002114172161
-0.0006550054019
-0.001700374576
-0.0007902622113
-0.001251822552
-0.0008457616047
-0.000816744746
-0.0008065747789
-0.0004446231989
-0.0006710733271
-0.000176231853
-0.0004576466262
-3.221205851e-05
-0.0002111002602
-1.079493214e-05
-0.0001720784222
0.0003769344891
-0.0005725608372
0.000928391919
-0.001105967824
0.00126485576
-0.001698036502
0.001412520651
-0.002290597237
0.00141120837
-0.00283725477
0.001292284801
-0.003300217787
0.00107934216
-0.003648292608
0.0007904456851
-0.00385633948
0.0004420571029
-0.003905816629
5.308495076e-05
-0.003787748152
-0.0003531836518
-0.0035040253
-0.0007456981548
-0.003071272937
-0.001087757869
-0.002522631286
-0.001338903908
-0.001907996516
-0.001460396258
-0.001290905722
-0.001423665298
-0.0007407541628
-0.001221224543
-0.0003202706674
-0.0008781298697
-7.110210038e-05
-0.0004602688999
-8.189713537e-05
-0.0002170220891
0.0005939565279
-0.0007188333759
0.001430202967
-0.001385655935
0.001931678312
-0.002127123715
0.00215398862
-0.002874374334
0.002158459212
-0.003573195618
0.001991106168
-0.004178979748
0.001685126186
-0.004653584926
0.00126505068
-0.004964199248
0.0007526713166
-0.005084017959
0.000172903683
-0.004995023788
-0.0004421777106
-0.004691189441
-0.001049532432
-0.0041835186
-0.001595428764
-0.003504390286
-0.002018032347
-0.002710450565
-0.002254336042
-0.00188157821
-0.002252537567
-0.001113233227
-0.001989569322
-0.0005008209266
-0.001490541996
-0.0001191420546
-0.0008419478354
-0.0002010392399
-0.0002573666865
0.0008513233751
-0.0008513399017
0.002024176039
-0.001642296953
0.002722635167
-0.002526557659
0.003038249243
-0.00342690156
0.00305880319
-0.004283389176
0.00284759394
-0.005046215233
0.002447952349
-0.005671018668
0.001889854115
-0.006116752049
0.001198404638
-0.006345982501
0.0004021340893
-0.006327843869
-0.0004603163491
-0.006042476691
-0.001334899629
-0.005488324163
-0.002149581389
-0.004689982444
-0.002816374236
-0.003705728021
-0.003238590627
-0.002631183689
-0.00332708196
-0.001594227072
-0.003026525882
-0.0007363871898
-0.002348381795
-0.0001821206306
-0.001396214427
-0.0003831598639
-0.0002911841435
0.001142507637
-0.0009641252949
0.002697117326
-0.001864163908
0.00362267374
-0.002878145924
0.00405223114
-0.003923464984
0.00410412216
-0.004937002058
0.003861131013
-0.005865889339
0.003376839702
-0.006661002596
0.002684967462
-0.007273440297
0.001810842417
-0.007653973911
0.0007826677459
-0.007755806297
-0.000358483971
-0.007539789051
-0.001550916948
-0.0069840281
-0.002705342475
-0.006095814918
-0.003704587587
-0.004925704708
-0.00440870099
-0.003579480276
-0.004673306481
-0.002220388443
-0.004385617725
-0.001050845728
-0.003517924481
-0.0002684677996
-0.002178592357
-0.0006516276307
-0.000315965664
0.001458473222
-0.001048737673
0.00342988948
-0.002034531854
0.00460846804
-0.003154903999
0.005172603312
-0.00432513344
0.005274351544
-0.005481849709
0.005017847195
-0.006571932661
0.004466922598
-0.007544121482
0.003657156299
-0.008343811693
0.002610532721
-0.008911130807
0.001349986982
-0.009182806593
-8.680810284e-05
-0.009097013161
-0.001636710388
-0.008604584703
-0.003197771008
-0.007684199527
-0.004624972862
-0.006364068904
-0.005728831702
-0.004746043796
-0.006291331643
-0.003022882497
-0.00610877904
-0.001469581417
-0.005071225556
-0.0003882445728
-0.00325992919
-0.001039872177
-0.0003291956576
0.001787668773
-0.00109644313
0.004197136917
-0.002135079761
0.005647104753
-0.00332536848
0.006362892127
-0.004583651728
0.006532634822
-0.005849373551
0.006283568959
-0.007072575276
0.00569012422
-0.008203825161
0.004788406119
-0.009187258729
0.003593966324
-0.009956893979
0.002119622355
-0.01043606973
0.0003923677788
-0.01054225
-0.001530530023
-0.01019503528
-0.003544985697
-0.009334089508
-0.005485918645
-0.007946629355
-0.007116291882
-0.006105927058
-0.008132033964
-0.004012930436
-0.008201775675
-0.002014593079
-0.007069562919
-0.0005528022463
-0.004721720016
-0.001592674418
-0.0003297928621
0.002117461644
-0.001101701922
0.004969045861
-0.002151423444
0.006696826262
-0.003361077973
0.007572546711
-0.004650845706
0.0078224026
-0.005965957041
0.007598680267
-0.007263379658
0.006987546746
-0.008500566287
0.006025592662
-0.009627012144
0.004720412168
-0.01057860304
0.003071213325
-0.01127459552
0.001088360392
-0.01161814898
-0.001186976442
-0.01150162928
-0.003661505318
-0.01082052638
-0.00616702151
-0.009503001608
-0.008433816646
-0.007560609041
-0.01007442655
-0.005160873439
-0.01060151129
-0.002696115652
-0.009534320721
-0.0007741503583
-0.006643685316
-0.002366824789
-0.0003199349173
0.002437396619
-0.001066686759
0.005715797644
-0.002080423974
0.007710563449
-0.00324681465
0.008738937405
-0.004492308006
0.009067895976
-0.005770873416
0.008877245646
-0.0070503163
0.008266989547
-0.008300542391
0.007275818669
-0.009484302339
0.005904172083
-0.01054996282
0.004136873833
-0.01142562087
0.001964018522
-0.01201417233
-0.0005984249097
-0.0121937947
-0.003481882884
-0.01182096893
-0.006539847237
-0.01075537873
-0.00949940683
-0.008913750719
-0.01191605456
-0.006370857895
-0.01314440413
-0.003498965225
-0.0124062134
-0.001063151396
-0.009079499159
-0.003429976203
-0.0003074094376
0.002744806051
-0.001006587496
0.006414975701
-0.001938354807
0.008642330784
-0.002991898918
0.009792481556
-0.00410281335
0.01017881044
-0.005237448859
0.01001188114
-0.006378627934
0.009408168546
-0.007514083775
0.008411274423
-0.008627331761
0.007017420014
-0.009689844155
0.005199386214
-0.01065314231
0.002927316684
-0.01143756775
0.0001860005501
-0.01192945609
-0.002989994506
-0.01196499039
-0.006504312913
-0.01134373893
-0.01012065827
-0.009868967783
-0.01339082569
-0.00746011425
-0.01555325766
-0.004363834572
-0.01550249309
-0.001425535639
-0.01201779811
-0.004855511856
-0.0003089282996
0.00305373428
-0.0009555674717
0.007061614865
-0.001768490035
0.009455253417
-0.00263939049
0.0106633821
-0.003518261912
0.01105768193
-0.004389722457
0.01088334171
-0.005256719072
0.01027516512
-0.006129514432
0.009284069704
-0.007017707043
0.007905612548
-0.007923326599
0.006105005712
-0.008832213182
0.003836203226
-0.009704214458
0.001058001812
-0.01045072627
-0.002243482693
-0.01092411997
-0.006030919198
-0.01089502841
-0.0101497498
-0.01006488808
-0.01422096599
-0.008157305485
-0.01746084023
-0.005167631633
-0.01849216693
-0.001854348995
-0.01533108075
-0.006709860858
-0.0003552700988
0.003409004302
-0.0009733332304
0.00767967796
-0.001646057449
0.01012797771
-0.002268710351
0.0112860351
-0.002816839918
0.0116058116
-0.003303693474
0.01137019533
-0.00375940987
0.01073088152
-0.004220924573
0.009745584359
-0.004726146772
0.008410834674
-0.005309762567
0.006688621429
-0.005996656513
0.004523097103
-0.006791798154
0.001853143398
-0.007660585473
-0.001374695407
-0.008503029271
-0.005188475406
-0.009113178082
-0.009539600979
-0.009142508015
-0.01419163603
-0.008128400621
-0.01847494761
-0.00571115655
-0.020909411
-0.002318284779
-0.01872395253
-0.009028145637
-0.0005003770504
0.003909381306
-0.001151296521
0.008330597386
-0.001674821045
0.01065150227
-0.001981640311
0.01159285443
-0.002095672374
0.01171984374
-0.002075735508
0.01135025853
-0.001988476987
0.01064362303
-0.00190115109
0.009658258456
-0.001878926907
0.00838861046
-0.001985970902
0.006795665376
-0.002282466752
0.004819592898
-0.002818755546
0.00238943214
-0.003622152014
-0.0005712989773
-0.00466884271
-0.004141784731
-0.005834634796
-0.0083738089
-0.006807663595
-0.01321860723
-0.00701666874
-0.01826594246
-0.005716400983
-0.02220967875
-0.002739567077
-0.02170078643
-0.01176771271
-0.0008308853763
0.004740266654
-0.00160483284
0.009104544829
-0.001950979374
0.01099764874
-0.001839382808
0.01148125782
-0.001385434807
0.01126589575
-0.0007181315925
0.01068295537
4.821344809e-05
0.009877278041
0.0008164049586
0.008890066992
0.001495360922
0.007709654529
0.001998424463
0.006292601856
0.00223851784
0.00457949953
0.002128355197
0.002499594784
0.001583160337
-2.610411689e-05
0.0005450317533
-0.003103656162
-0.0009843144213
-0.006844462738
-0.002828401645
-0.01137452002
-0.00445912588
-0.01663521823
-0.004810489472
-0.02185831517
-0.0029442909
-0.02356698501
-0.01471200361
-0.001465682523
0.006205949156
-0.002379876575
0.01001873892
-0.002373444863
0.01099121687
-0.001603541919
0.01071135471
-0.0003496263256
0.01001198011
0.001163642715
0.009169686357
0.002771842259
0.008269078575
0.004349534418
0.007312374933
0.005791624053
0.006267564996
0.006998015295
0.005086210708
0.007865493693
0.003712021212
0.008282285721
0.002082802816
0.008123822626
0.0001323590021
0.007264497118
-0.002244330642
0.00558521336
-0.005165178979
0.003073873267
-0.00886317993
7.897207715e-05
-0.01364031704
-0.002445747287
-0.01933359581
-0.00260107799
-0.02341165431
-0.01731308161
-0.002365503997
0.008571453159
-0.002963808639
0.01061704366
-0.001922813991
0.00995022209
8.111540265e-05
0.008707425174
0.00253488728
0.007558208165
0.005140255972
0.006564317675
0.007719753916
0.00568958069
0.01015462192
0.00487750701
0.01234957393
0.004072613067
0.01421200274
0.00322378198
0.01564054064
0.00228348338
0.01651758938
0.001205754117
0.01669710003
-4.715162819e-05
0.01602712657
-0.001574357154
0.01430509031
-0.003443142714
0.01133283096
-0.005890920576
0.007055613857
-0.009363099942
0.002201623716
-0.01447960568
-0.001027320521
-0.02018271008
-0.01834040213
-0.002150342882
0.01072179606
-7.199469979e-05
0.008538695438
0.003741898522
0.006136329142
0.007719772916
0.004729550842
0.01156187111
0.003716109981
0.01514101069
0.002985178082
0.01839885634
0.002431734997
0.02130155573
0.001974807554
0.02381243393
0.0015617348
0.02587973507
0.001156480788
0.02743056923
0.000732649173
0.02836472841
0.0002715949132
0.02857561766
-0.0002580408706
0.02788766542
-0.0008864049026
0.02609934142
-0.001654818705
0.02290826576
-0.002699844914
0.01790696691
-0.004361801088
0.01076690819
-0.007339546963
0.002912180386
-0.01232798228
-0.01542822175
0.01072179614
0.01926049162
0.0253968208
0.03012637164
0.03384248158
0.03682765959
0.03925939449
0.04123420195
0.04279593666
0.04395241739
0.04468506653
0.04495666144
0.04469862058
0.04381221569
0.042157397
0.03945755209
0.035095751
0.02775620404
0.01542822175
)
;

boundaryField
{
    movingWall
    {
        type            calculated;
        value           uniform 0;
    }
    fixedWalls
    {
        type            calculated;
        value           uniform 0;
    }
    frontAndBack
    {
        type            empty;
    }
}


// ************************************************************************* //
