/*--------------------------------*- C++ -*----------------------------------*\
  =========                 |
  \\      /  F ield         | OpenFOAM: The Open Source CFD Toolbox
   \\    /   O peration     | Website:  https://openfoam.org
    \\  /    A nd           | Version:  13
     \\/     M anipulation  |
\*---------------------------------------------------------------------------*/
FoamFile
{
    format      ascii;
    class       surfaceScalarField;
    location    "47";
    object      phi_0;
}
// * * * * * * * * * * * * * * * * * * * * * * * * * * * * * * * * * * * * * //

dimensions      [0 3 -1 0 0 0 0];

internalField   nonuniform List<scalar> 
760
(
-1.321877001e-05
1.321863548e-05
-7.201774072e-05
5.879896981e-05
-0.0001620727389
9.005499864e-05
-0.0002652229093
0.0001031502551
-0.0003682425398
0.0001030197112
-0.0004615043552
9.32617464e-05
-0.0005377500499
7.624547871e-05
-0.0005912422458
5.349200409e-05
-0.0006175094982
2.626726198e-05
-0.0006135894761
-3.919799651e-06
-0.0005784600443
-3.512915915e-05
-0.0005138427449
-6.461714279e-05
-0.0004246594405
-8.918333901e-05
-0.0003192817532
-0.0001053778531
-0.0002092254248
-0.0001100564966
-0.0001081386053
-0.0001010869072
-2.992495873e-05
-7.821366094e-05
1.414943296e-05
-4.40743943e-05
2.190963209e-05
-7.760261263e-06
2.190954166e-05
-6.870332113e-05
8.19219588e-05
-0.0002457755183
0.0002358711735
-0.0004934732776
0.0003377526159
-0.0007722780649
0.000381954913
-0.001050409662
0.0003811514084
-0.00130300636
0.000345858765
-0.001510604366
0.0002838437748
-0.001657872385
0.000200760021
-0.00173320001
0.0001015945686
-0.001729305871
-7.814349718e-06
-0.001643831567
-0.0001206036892
-0.001481414117
-0.0002270345448
-0.001254381847
-0.0003162153955
-0.000983294825
-0.0003764647086
-0.0006961415778
-0.0003972097478
-0.0004257314416
-0.0003714971702
-0.0002049932275
-0.0002989519925
-5.98122255e-05
-0.000189255429
-4.920556149e-07
-6.708037256e-05
2.141732625e-05
-0.000122934219
0.0002048561755
-0.0004149723243
0.000527909425
-0.0008086682143
0.0007314485409
-0.001247165306
0.00082045184
-0.001684661874
0.00081864773
-0.002084430749
0.0007456275238
-0.002416966204
0.0006163793605
-0.002658576798
0.0004423708962
-0.002790992115
0.0002340101038
-0.002802414058
3.607628915e-06
-0.002687902613
-0.0002351152647
-0.002452962061
-0.0004619752703
-0.002114172119
-0.0006550054195
-0.001700374539
-0.0007902622379
-0.001251822529
-0.0008457616153
-0.0008167447513
-0.0008065747641
-0.0004446232456
-0.0006710732948
-0.000176231931
-0.0004576465885
-3.221211478e-05
-0.0002111002231
-1.079489048e-05
-0.000172078402
0.0003769344924
-0.0005725608195
0.0009283918925
-0.001105967837
0.001264855739
-0.001698036534
0.001412520661
-0.00229059726
0.001411208408
-0.002837254763
0.001292284838
-0.003300217759
0.001079342171
-0.003648292585
0.0007904456695
-0.003856339479
0.0004420570812
-0.003905816647
5.30849424e-05
-0.003787748175
-0.0003531836473
-0.003504025302
-0.0007456981506
-0.003071272905
-0.001087757882
-0.002522631229
-0.001338903944
-0.001907996463
-0.001460396308
-0.001290905706
-0.001423665344
-0.0007407542042
-0.001221224572
-0.0003202707461
-0.0008781298757
-7.110214783e-05
-0.0004602688815
-8.189710598e-05
-0.0002170220958
0.0005939565538
-0.0007188333525
0.001430202977
-0.001385655913
0.001931678293
-0.002127123716
0.002153988595
-0.002874374357
0.002158459205
-0.003573195642
0.001991106185
-0.004178979752
0.001685126214
-0.004653584911
0.001265050702
-0.004964199233
0.0007526713251
-0.00508401796
0.0001729036799
-0.00499502381
-0.0004421777199
-0.004691189463
-0.001049532444
-0.004183518593
-0.001595428783
-0.003504390241
-0.002018032379
-0.002710450506
-0.002254336091
-0.001881578175
-0.002252537626
-0.001113233244
-0.001989569375
-0.0005008209795
-0.001490542024
-0.0001191420839
-0.0008419478322
-0.0002010392237
-0.0002573667134
0.0008513233836
-0.0008513399089
0.002024176069
-0.001642296938
0.002722635183
-0.00252655764
0.003038249236
-0.003426901555
0.003058803169
-0.004283389186
0.002847593923
-0.005046215245
0.002447952349
-0.005671018672
0.001889854132
-0.006116752049
0.001198404662
-0.00634598251
0.0004021341088
-0.006327843894
-0.0004603163395
-0.00604247672
-0.001334899627
-0.005488324171
-0.002149581392
-0.004689982417
-0.002816374246
-0.003705727971
-0.003238590649
-0.002631183648
-0.003327081995
-0.001594227065
-0.003026525923
-0.0007363872108
-0.002348381823
-0.0001821206413
-0.001396214432
-0.00038315986
-0.0002911841528
0.001142507618
-0.0009641253163
0.00269711733
-0.00186416392
0.00362267376
-0.002878145921
0.004052231155
-0.003923464974
0.004104122157
-0.004937002048
0.003861130994
-0.005865889332
0.003376839681
-0.006661002592
0.002684967454
-0.007273440303
0.001810842426
-0.007653973933
0.0007826677686
-0.007755806334
-0.000358483943
-0.007539789086
-0.00155091692
-0.006984028116
-0.002705342448
-0.006095814904
-0.003704587565
-0.004925704672
-0.004408700981
-0.00357948024
-0.004673306487
-0.002220388425
-0.004385617743
-0.001050845728
-0.003517924499
-0.0002684677988
-0.002178592366
-0.0006516276357
-0.0003159656499
0.001458473207
-0.001048737677
0.003429889459
-0.002034531871
0.004608468037
-0.003154904017
0.005172603321
-0.004325133447
0.00527435155
-0.005481849701
0.005017847188
-0.006571932639
0.00446692258
-0.007544121457
0.00365715628
-0.008343811683
0.002610532712
-0.008911130824
0.00134998699
-0.009182806631
-8.680807941e-05
-0.0090970132
-0.001636710352
-0.008604584726
-0.003197770967
-0.007684199527
-0.004624972825
-0.006364068886
-0.005728831676
-0.004746043773
-0.006291331632
-0.003022882481
-0.006108779042
-0.001469581409
-0.005071225565
-0.0003882445685
-0.003259929199
-0.001039872185
-0.000329195645
0.001787668776
-0.001096443116
0.004197136903
-0.002135079765
0.005647104742
-0.0033253685
0.006362892124
-0.00458365175
0.006532634825
-0.005849373556
0.006283568958
-0.007072575255
0.00569012421
-0.008203825124
0.004788406103
-0.0091872587
0.003593966306
-0.009956893976
0.002119622345
-0.01043606975
0.0003923677819
-0.01054225003
-0.001530530005
-0.01019503531
-0.003544985669
-0.009334089522
-0.005485918615
-0.007946629354
-0.007116291857
-0.00610592705
-0.00813203395
-0.004012930428
-0.008201775671
-0.002014593073
-0.007069562922
-0.0005528022433
-0.004721720023
-0.001592674425
-0.0003297928637
0.002117461649
-0.001101701909
0.004969045864
-0.002151423437
0.006696826261
-0.003361077986
0.00757254671
-0.004650845731
0.007822402601
-0.005965957056
0.007598680267
-0.007263379646
0.006987546742
-0.008500566251
0.00602559265
-0.009627012106
0.004720412148
-0.01057860302
0.003071213301
-0.01127459553
0.001088360373
-0.011618149
-0.001186976451
-0.01150162931
-0.003661505315
-0.0108205264
-0.006167021499
-0.009503001618
-0.008433816632
-0.007560609044
-0.01007442653
-0.005160873438
-0.01060151129
-0.00269611565
-0.009534320718
-0.000774150358
-0.006643685317
-0.002366824791
-0.0003199349215
0.002437396613
-0.00106668675
0.00571579765
-0.002080423967
0.007710563459
-0.00324681466
0.008738937415
-0.004492308031
0.009067895985
-0.005770873436
0.008877245654
-0.007050316297
0.008266989549
-0.008300542365
0.007275818661
-0.009484302304
0.005904172065
-0.01054996279
0.004136873806
-0.01142562087
0.001964018492
-0.01201417234
-0.0005984249345
-0.01219379471
-0.003481882899
-0.01182096895
-0.006539847241
-0.01075537874
-0.009499406826
-0.008913750727
-0.01191605455
-0.0063708579
-0.01314440412
-0.003498965228
-0.0124062134
-0.001063151398
-0.009079499156
-0.003429976201
-0.0003074094309
0.00274480604
-0.001006587483
0.0064149757
-0.001938354801
0.008642330793
-0.002991898928
0.009792481569
-0.004102813376
0.01017881045
-0.005237448885
0.01001188115
-0.006378627943
0.009408168557
-0.007514083763
0.008411274425
-0.008627331737
0.007017420004
-0.009689844133
0.005199386193
-0.01065314229
0.002927316657
-0.01143756774
0.0001860005258
-0.0119294561
-0.002989994526
-0.01196499039
-0.006504312924
-0.01134373893
-0.01012065827
-0.009868967792
-0.01339082568
-0.007460114258
-0.01555325765
-0.004363834577
-0.01550249308
-0.001425535641
-0.0120177981
-0.004855511852
-0.0003089282824
0.003053734271
-0.0009555674472
0.007061614857
-0.001768490023
0.009455253415
-0.002639390498
0.0106633821
-0.003518261937
0.01105768194
-0.004389722487
0.01088334172
-0.005256719092
0.01027516514
-0.006129514435
0.009284069718
-0.007017707033
0.007905612554
-0.007923326584
0.006105005709
-0.008832213167
0.003836203215
-0.009704214447
0.001058001798
-0.01045072627
-0.002243482706
-0.01092411997
-0.006030919208
-0.01089502841
-0.01014974981
-0.01006488808
-0.01422096599
-0.008157305493
-0.01746084023
-0.005167631639
-0.01849216693
-0.001854348997
-0.01533108075
-0.006709860854
-0.0003552700806
0.003409004299
-0.0009733332004
0.00767967795
-0.001646057431
0.0101279777
-0.002268710351
0.01128603509
-0.002816839936
0.01160581159
-0.003303693502
0.01137019533
-0.003759409894
0.01073088154
-0.004220924586
0.009745584382
-0.004726146774
0.008410834697
-0.005309762561
0.006688621447
-0.005996656503
0.004523097115
-0.006791798142
0.001853143403
-0.007660585462
-0.001374695406
-0.008503029264
-0.005188475408
-0.009113178081
-0.009539600983
-0.009142508017
-0.01419163604
-0.008128400626
-0.01847494761
-0.005711156554
-0.020909411
-0.002318284781
-0.01872395252
-0.009028145635
-0.0005003770389
0.003909381307
-0.001151296498
0.008330597381
-0.001674821027
0.01065150225
-0.001981640303
0.0115928544
-0.002095672377
0.01171984372
-0.002075735522
0.01135025853
-0.001988477003
0.01064362304
-0.001901151103
0.009658258479
-0.001878926914
0.008388610488
-0.001985970904
0.006795665405
-0.002282466749
0.004819592923
-0.002818755541
0.00238943216
-0.003622152008
-0.0005712989641
-0.004668842705
-0.004141784724
-0.005834634794
-0.008373808898
-0.006807663595
-0.01321860723
-0.007016668742
-0.01826594246
-0.005716400985
-0.02220967875
-0.002739567078
-0.02170078643
-0.01176771271
-0.0008308853729
0.004740266662
-0.001604832835
0.009104544835
-0.001950979362
0.01099764873
-0.00183938279
0.01148125779
-0.001385434792
0.01126589573
-0.0007181315872
0.01068295536
4.82134464e-05
0.009877278042
0.0008164049526
0.008890067003
0.001495360915
0.007709654545
0.001998424457
0.006292601876
0.002238517835
0.00457949955
0.002128355193
0.002499594801
0.001583160334
-2.610410517e-05
0.0005450317521
-0.003103656152
-0.0009843144223
-0.006844462732
-0.002828401647
-0.01137452001
-0.004459125882
-0.01663521823
-0.004810489473
-0.02185831517
-0.0029442909
-0.02356698501
-0.01471200361
-0.001465682524
0.006205949173
-0.00237987659
0.01001873894
-0.00237344486
0.01099121688
-0.001603541896
0.01071135471
-0.0003496263
0.0100119801
0.001163642735
0.009169686341
0.00277184227
0.008269078557
0.004349534421
0.007312374916
0.005791624051
0.006267564983
0.00699801529
0.005086210699
0.007865493685
0.003712021207
0.008282285713
0.002082802814
0.008123822619
0.0001323590043
0.007264497112
-0.002244330638
0.005585213355
-0.005165178974
0.003073873263
-0.008863179926
7.897207463e-05
-0.01364031704
-0.002445747288
-0.01933359581
-0.00260107799
-0.02341165431
-0.01731308161
-0.002365503999
0.008571453178
-0.002963808659
0.01061704368
-0.001922814001
0.009950222128
8.111541111e-05
0.008707425196
0.002534887298
0.007558208165
0.00514025599
0.006564317656
0.007719753929
0.005689580657
0.01015462193
0.004877506972
0.01234957394
0.00407261303
0.01421200274
0.003223781948
0.01564054064
0.002283483357
0.01651758938
0.001205754104
0.01669710003
-4.71516321e-05
0.01602712656
-0.001574357154
0.01430509031
-0.003443142713
0.01133283096
-0.005890920573
0.007055613853
-0.00936309994
0.002201623714
-0.01447960568
-0.001027320522
-0.02018271008
-0.01834040213
-0.002150342882
0.01072179608
-7.199462115e-05
0.008538695448
0.003741898499
0.006136329144
0.0077197729
0.004729550843
0.01156187111
0.003716109974
0.01514101069
0.002985178066
0.01839885634
0.002431734975
0.02130155574
0.00197480753
0.02381243394
0.001561734779
0.02587973508
0.001156480771
0.02743056924
0.0007326491617
0.02836472842
0.0002715949067
0.02857561766
-0.0002580408733
0.02788766542
-0.0008864049029
0.02609934141
-0.001654818705
0.02290826576
-0.002699844913
0.01790696691
-0.004361801087
0.01076690819
-0.007339546963
0.002912180385
-0.01232798228
-0.01542822175
0.01072179613
0.01926049161
0.02539682078
0.03012637162
0.03384248156
0.03682765958
0.03925939449
0.04123420195
0.04279593667
0.0439524174
0.04468506655
0.04495666145
0.04469862059
0.04381221569
0.042157397
0.03945755209
0.035095751
0.02775620403
0.01542822175
)
;

boundaryField
{
    movingWall
    {
        type            calculated;
        value           uniform 0;
    }
    fixedWalls
    {
        type            calculated;
        value           uniform 0;
    }
    frontAndBack
    {
        type            empty;
    }
}


// ************************************************************************* //
