/*--------------------------------*- C++ -*----------------------------------*\
  =========                 |
  \\      /  F ield         | OpenFOAM: The Open Source CFD Toolbox
   \\    /   O peration     | Website:  https://openfoam.org
    \\  /    A nd           | Version:  13
     \\/     M anipulation  |
\*---------------------------------------------------------------------------*/
FoamFile
{
    format      ascii;
    class       volVectorField;
    location    "47";
    object      U;
}
// * * * * * * * * * * * * * * * * * * * * * * * * * * * * * * * * * * * * * //

dimensions      [0 1 -1 0 0 0 0];

internalField   nonuniform List<vector> 
400
(
(1.100817744e-05 -3.783032197e-05 0)
(-0.0006660926784 0.0004130430408 -1.551422569e-23)
(-0.002185373673 0.0009203942951 0)
(-0.004047832451 0.001312781994 0)
(-0.005971867602 0.001535066114 6.845852969e-25)
(-0.00776278207 0.001569846617 4.150984707e-24)
(-0.009284544619 0.001423561465 -7.374363126e-24)
(-0.01043594248 0.001119722042 7.529759095e-24)
(-0.01113681696 0.0006960835595 -2.095323577e-25)
(-0.01132711414 0.000203080451 -3.994554955e-24)
(-0.01097177381 -0.0003002306139 5.803531567e-24)
(-0.01007232709 -0.000747514929 -5.929514467e-23)
(-0.008679878013 -0.001075563205 -6.552637109e-23)
(-0.006902851109 -0.001233046054 -7.784222247e-23)
(-0.004910737251 -0.001192640236 4.573529182e-24)
(-0.002927231778 -0.0009619216605 -4.137871837e-24)
(-0.001205298581 -0.0005912125879 -1.998717799e-22)
(-1.906666374e-05 -0.0001698838543 0)
(0.0005181565261 0.0001720846301 1.50936817e-25)
(0.0002227526108 0.0003059785982 -2.549703623e-24)
(-0.0002633616628 0.0008289720522 1.382879019e-25)
(-0.002703303163 0.003383842585 1.561221696e-23)
(-0.00690727509 0.005604502045 1.555551683e-25)
(-0.01195231995 0.007008209279 -8.496074787e-25)
(-0.01713504618 0.007553778155 1.162231993e-24)
(-0.02197535576 0.007294200595 1.306975778e-23)
(-0.02611076046 0.006321893109 1.387596975e-24)
(-0.02926564588 0.004754191105 -7.281502798e-24)
(-0.03122672961 0.002737150861 1.015228855e-23)
(-0.03184201158 0.0004524070747 4.509884249e-24)
(-0.03102761774 -0.001884141921 -6.31879613e-24)
(-0.02879316928 -0.004023026915 2.961781114e-24)
(-0.02527138488 -0.005708353673 3.895508262e-23)
(-0.02073194835 -0.006707410961 -1.954748559e-24)
(-0.01558962532 -0.006854143363 3.754436945e-24)
(-0.01038513319 -0.006097468536 -9.74085677e-23)
(-0.005730271167 -0.004546191054 9.637483528e-23)
(-0.002233364839 -0.002507422999 -3.960886072e-25)
(-0.0001817716676 -0.0005023748987 4.060780341e-25)
(8.34377287e-05 0.0006099242036 0)
(-0.0004188234106 0.002935081139 -2.910316458e-25)
(-0.004647874017 0.008804016347 1.701938269e-23)
(-0.01137195888 0.01324042414 -8.284740437e-24)
(-0.01932729028 0.01579204153 -2.075683212e-25)
(-0.02747411822 0.01653000244 2.039142039e-25)
(-0.0351177909 0.01564442002 6.794131143e-27)
(-0.04171345066 0.01335997856 -1.220101287e-24)
(-0.04683571824 0.009919771251 -4.55105163e-25)
(-0.05014988902 0.00560243121 -1.063046594e-23)
(-0.05141231877 0.0007444178263 0)
(-0.05047793337 -0.004241782056 0)
(-0.04733706496 -0.008887186885 2.670974236e-23)
(-0.04215928208 -0.0126817684 2.812991397e-23)
(-0.03531437708 -0.01513605147 -1.646148785e-24)
(-0.02738996457 -0.01586189717 4.845823469e-23)
(-0.0191700595 -0.01467334502 9.419164561e-23)
(-0.0115609059 -0.01169360778 3.975645704e-23)
(-0.005465408095 -0.007450746342 4.141530001e-25)
(-0.001451095167 -0.002936045345 1.073981813e-25)
(-9.072488276e-05 0.0002258747875 0)
(-0.0005024635584 0.006045351552 -4.248753473e-23)
(-0.006402740613 0.0163707586 -1.692162121e-23)
(-0.01553502476 0.02355933782 8.211583991e-24)
(-0.02627912031 0.02744162665 0)
(-0.03728746765 0.02832102192 0)
(-0.04769037613 0.02658772657 0)
(-0.05679663295 0.02263120582 -4.4649356e-26)
(-0.0640538435 0.01683609535 -2.137066717e-24)
(-0.06901081776 0.009622184724 0)
(-0.07130828047 0.00149104913 1.635355312e-24)
(-0.07070853619 -0.006936505866 2.802709689e-25)
(-0.06713039544 -0.0149301902 -2.810557211e-25)
(-0.06069905858 -0.02166728225 0)
(-0.05180750913 -0.02631605728 4.133204768e-23)
(-0.04114992081 -0.02816070829 -4.681537661e-23)
(-0.02971970491 -0.02677372228 -2.761910114e-23)
(-0.01873716658 -0.02221530556 -3.960790132e-23)
(-0.009488024997 -0.01521922251 7.795985779e-25)
(-0.002976876138 -0.00729819562 9.790472043e-23)
(-0.0002318779607 -0.0008661697821 0)
(-0.0005316131264 0.01009501609 4.269413743e-23)
(-0.007983593227 0.02595219829 4.78551301e-25)
(-0.01939687641 0.03642883236 -4.676213456e-25)
(-0.03282382617 0.0418552105 0)
(-0.04664689125 0.04289485418 7.783032733e-25)
(-0.0598522979 0.04020074122 -7.675118155e-25)
(-0.07163291577 0.03434741753 3.672322251e-23)
(-0.08132751554 0.02585664205 1.848251559e-23)
(-0.08836601431 0.01527298454 6.238962403e-24)
(-0.09225469842 0.00324614742 -1.637260523e-24)
(-0.09260379967 -0.009407833002 0)
(-0.08917555602 -0.02167478127 4.370503407e-25)
(-0.08195979384 -0.03236745135 1.008968701e-23)
(-0.07126885722 -0.04021250135 -4.349232221e-23)
(-0.05782019225 -0.04402046245 1.932863729e-24)
(-0.04278583336 -0.04294829222 4.217194089e-23)
(-0.02775450465 -0.03683346797 -3.841673933e-25)
(-0.01455062139 -0.02652720906 0)
(-0.004859459866 -0.01408454538 5.436533696e-23)
(-0.0003641472271 -0.002846954623 -2.565089054e-22)
(-0.0005272204728 0.01499927691 9.841595725e-23)
(-0.009377924776 0.03739022392 -4.907833009e-25)
(-0.02288182873 0.05170223327 0)
(-0.03883043738 0.05894183565 0)
(-0.05538657024 0.06025575032 -8.732156396e-23)
(-0.07142876913 0.05661901336 -8.499119444e-23)
(-0.08606654396 0.048801689 -4.067580505e-23)
(-0.09855086293 0.03743980546 -1.504387108e-23)
(-0.1081945346 0.0231598395 -5.368990075e-24)
(-0.1143444762 0.006709678925 -8.175028e-24)
(-0.1164046232 -0.01093292206 6.601171767e-24)
(-0.1138937415 -0.02848945124 8.826823422e-24)
(-0.1065486993 -0.04437046358 -1.892321377e-23)
(-0.09446804285 -0.05675333848 4.608396624e-24)
(-0.07826857259 -0.06378298679 0)
(-0.05922895812 -0.06393495349 -1.572832668e-23)
(-0.03933982126 -0.05653816163 -2.430361743e-26)
(-0.02114188799 -0.04235809038 0)
(-0.007318701771 -0.02398229441 -1.52065706e-22)
(-0.0005216160675 -0.005925545679 6.056291553e-22)
(-0.000499081802 0.02064574671 -9.774546893e-23)
(-0.01052950951 0.0504543827 2.831990593e-22)
(-0.02582957464 0.069125119 1.526864907e-22)
(-0.04402138441 0.07849258245 3.6192966e-24)
(-0.0631073941 0.0802947684 -7.319362518e-23)
(-0.08190405374 0.07588043327 9.043577514e-23)
(-0.09947763986 0.06621690986 -3.590227523e-24)
(-0.1150227408 0.05201695187 -1.729175761e-24)
(-0.1277519209 0.03392358467 2.524169013e-24)
(-0.1368472624 0.01270233079 7.382660428e-24)
(-0.1414710536 -0.01058782481 -6.500915632e-24)
(-0.140824819 -0.03446024565 -9.788259357e-24)
(-0.1342745979 -0.05692771953 -3.261726816e-23)
(-0.121545026 -0.07553316482 -3.661607572e-23)
(-0.1029672688 -0.08754260779 5.646194909e-25)
(-0.07976370236 -0.09039209776 0)
(-0.0542668273 -0.08244513754 0)
(-0.02987161032 -0.06397736839 -2.906080643e-24)
(-0.01066285157 -0.03798794747 2.970530227e-24)
(-0.0007350937271 -0.01050089509 1.027873152e-22)
(-0.0004479167593 0.02687251333 0)
(-0.0113492329 0.06480757804 2.001983504e-22)
(-0.02801599709 0.08829617497 8.962050046e-23)
(-0.04799857394 0.1001234973 0)
(-0.06920602119 0.1027076587 1.569889548e-22)
(-0.09044373431 0.09781579021 0)
(-0.1107831716 0.08661103423 -1.42839254e-22)
(-0.1294093808 0.0698395064 6.515579941e-24)
(-0.145477168 0.04808232314 0)
(-0.1580351849 0.02201755525 0)
(-0.1660133478 -0.007334441569 -1.374415262e-24)
(-0.1682671572 -0.03838840022 -9.31683876e-25)
(-0.1637064713 -0.06883976226 1.49198754e-22)
(-0.1515208784 -0.09558276156 -4.704623034e-23)
(-0.1315134583 -0.1148298695 -2.560998674e-24)
(-0.1045596105 -0.1225703438 1.534752566e-24)
(-0.07309350126 -0.1155517982 -1.558962185e-24)
(-0.04135021623 -0.09283115659 0)
(-0.01525230336 -0.05740767693 3.203822943e-24)
(-0.001044309322 -0.01714714467 -1.012916908e-21)
(-0.0003744668017 0.03346304634 0)
(-0.01175006145 0.07998919074 -1.128295529e-22)
(-0.02920708011 0.1086390981 -6.191162018e-22)
(-0.05031745067 0.1232234025 -3.755313107e-22)
(-0.07296317488 0.1269097067 0)
(-0.09598960328 0.1219255674 4.11946503e-22)
(-0.1185273513 0.1096348678 1.260928715e-22)
(-0.1398146466 0.09078246173 -5.581846324e-24)
(-0.1590221604 0.06581393357 5.554219184e-24)
(-0.175146105 0.03520881147 0)
(-0.1869560018 -0.0001967481822 2.912133784e-23)
(-0.1930172671 -0.03889754584 4.695848812e-24)
(-0.1917809932 -0.07843888887 -1.076812573e-22)
(-0.1817874457 -0.115186542 8.004252359e-23)
(-0.1620570459 -0.1442599506 -2.419754228e-22)
(-0.1327062025 -0.1598548665 0)
(-0.0957788836 -0.1563112914 0)
(-0.05601633187 -0.1302981101 0)
(-0.02147859198 -0.08381135196 0)
(-0.00150038481 -0.02665516284 5.572131077e-22)
(-0.0002873898572 0.04016077802 0)
(-0.01169359657 0.09543611797 -3.49302351e-22)
(-0.02924438377 0.1294073666 8.932813663e-22)
(-0.05060947319 0.1469299207 3.617185209e-22)
(-0.07370082623 0.1519748709 0)
(-0.09745151129 0.1472757994 -3.862562328e-22)
(-0.121106985 0.134419198 -3.174435664e-23)
(-0.1440324816 0.1141393346 3.333109748e-22)
(-0.1655143276 0.08670006828 1.769476882e-22)
(-0.184624856 0.05229123623 -4.060155809e-23)
(-0.2001325839 0.01141716207 1.656822123e-23)
(-0.2104622459 -0.03471424264 -8.265257574e-24)
(-0.2137208538 -0.08376563853 3.371861733e-22)
(-0.2078215507 -0.1318756382 0)
(-0.1908238545 -0.1732756175 2.420923258e-22)
(-0.1616335749 -0.2002593431 5.774801957e-24)
(-0.1211662701 -0.204012174 -5.860921336e-24)
(-0.07384989877 -0.1772119979 1.54845634e-22)
(-0.02971786865 -0.1188642339 -5.435485967e-24)
(-0.002179545225 -0.04005398752 0)
(-0.0002117196652 0.04671640116 0)
(-0.01125001096 0.1105498149 0)
(-0.02815624507 0.1497355035 -5.022764095e-22)
(-0.04874479298 0.1701517639 -1.881000141e-23)
(-0.07100086549 0.1766257181 2.038381035e-23)
(-0.09399451386 0.1724526542 -2.014313504e-23)
(-0.1171434297 0.1594871015 -2.316886492e-23)
(-0.1400179514 0.1384805106 -3.029827851e-22)
(-0.1621328909 0.1095160735 6.698616168e-23)
(-0.1827959054 0.07245187118 4.513182194e-23)
(-0.2009835567 0.02734928937 -4.577724441e-23)
(-0.2152270266 -0.02508697759 0)
(-0.223556221 -0.08298351473 -7.839697924e-23)
(-0.2234632193 -0.1427257354 0)
(-0.212067943 -0.1981820912 -3.739566577e-22)
(-0.186743455 -0.2400773731 5.244962772e-22)
(-0.1464438308 -0.2560773447 0)
(-0.09394567762 -0.2331209534 -1.494002174e-22)
(-0.04022001007 -0.1639613679 1.937559028e-22)
(-0.003201100248 -0.05861063197 -3.411538616e-22)
(-0.0002015409828 0.05297585262 0)
(-0.01067261928 0.1248172412 9.1828791e-22)
(-0.0262844672 0.1687424609 -2.440688003e-23)
(-0.04501107773 0.191645517 9.193346686e-22)
(-0.06494597365 0.1992921082 -2.512088792e-23)
(-0.08536628352 0.1956104343 2.838847254e-23)
(-0.1059305635 0.1827886865 -2.812933286e-23)
(-0.1264924183 0.1616583526 -1.660919639e-23)
(-0.146899685 0.1321762314 -5.260234024e-22)
(-0.1668458161 0.09389646751 -8.906636288e-24)
(-0.1857303026 0.04640576379 9.66020279e-24)
(-0.2024781683 -0.0102378473 3.313079929e-22)
(-0.2154154608 -0.07499820407 -5.820744198e-22)
(-0.2220209709 -0.1450311856 0)
(-0.2188032097 -0.2146760644 8.887332231e-22)
(-0.201625752 -0.2740016455 -4.94089489e-22)
(-0.166863919 -0.3075811991 -1.572225802e-23)
(-0.1140220093 -0.2953811943 0)
(-0.05288482012 -0.2195802601 -1.890192582e-22)
(-0.004749188083 -0.08377278041 3.360596241e-22)
(-0.000364198962 0.05902317914 1.551011904e-23)
(-0.01049574053 0.1379881526 -8.764206334e-22)
(-0.02441389605 0.1856804129 -1.15706005e-21)
(-0.0402672438 0.2101384779 -8.62899511e-22)
(-0.05630729433 0.2182348936 0)
(-0.07214856285 0.214619029 3.513808508e-23)
(-0.08779221344 0.2018791972 -7.294873247e-23)
(-0.103456277 0.1810005623 5.867889947e-23)
(-0.1193983859 0.1518997252 3.021369535e-22)
(-0.1357931538 0.1139150577 -1.128196661e-23)
(-0.1526082313 0.06621424998 0)
(-0.1694521369 0.008177203495 -3.6039322e-22)
(-0.1852760591 -0.06015987742 7.515673052e-22)
(-0.1980448511 -0.1372747022 8.831709463e-22)
(-0.2043546258 -0.2189261905 -5.296631816e-22)
(-0.1990977607 -0.2959712935 5.162694236e-22)
(-0.1760605326 -0.3514072615 1.078235533e-23)
(-0.1300890628 -0.358415081 -1.095550615e-23)
(-0.06688803291 -0.2843276533 -8.215247073e-23)
(-0.007083319856 -0.1169964427 0)
(-0.0009095781297 0.06540041639 -1.911488527e-23)
(-0.01167591837 0.1502816432 -1.326966623e-21)
(-0.02388882138 0.2000659588 1.094238383e-21)
(-0.03601340361 0.2244216996 6.734934636e-22)
(-0.04657308548 0.231658827 6.014635721e-22)
(-0.05577038188 0.2272393716 6.643961347e-22)
(-0.06411245373 0.2141774889 -4.458680879e-23)
(-0.07227561276 0.1936494388 -3.461339441e-22)
(-0.08096972623 0.1656028318 2.15216381e-22)
(-0.09087192041 0.1292707353 0)
(-0.1025547429 0.08353082423 0)
(-0.1163622136 0.02720010659 2.655398265e-22)
(-0.1321589542 -0.04062006091 8.194326787e-23)
(-0.1489252302 -0.1200128316 -2.821625561e-22)
(-0.1641284267 -0.2089300699 -5.411274707e-23)
(-0.1727877607 -0.3006992517 1.301952224e-22)
(-0.1670311296 -0.3793329115 -3.400509061e-22)
(-0.1365292433 -0.4136451985 -1.593809574e-23)
(-0.08018250116 -0.3538326219 8.204019847e-23)
(-0.01050762288 -0.1594130577 -6.03215402e-22)
(-0.002260498799 0.07348883547 0)
(-0.01580355732 0.1626521787 2.145876181e-21)
(-0.02665042622 0.2117904766 0)
(-0.03422339575 0.2333947305 -1.351808811e-21)
(-0.03759398372 0.2377766854 6.184057296e-23)
(-0.03799685018 0.2312553542 -6.193098698e-22)
(-0.0366826559 0.2171899019 -4.756286948e-22)
(-0.03489036 0.1968934491 8.301259731e-22)
(-0.03378837583 0.1703342376 -1.885699251e-22)
(-0.03449876141 0.1367221065 0)
(-0.03811572455 0.09479673502 0)
(-0.04564992214 0.04304286468 2.410615023e-23)
(-0.05790804127 -0.02013781327 -6.007201364e-22)
(-0.07514598407 -0.09620650281 -4.309569095e-22)
(-0.09645174876 -0.1855556177 4.637864708e-22)
(-0.1183462607 -0.2853567775 -6.488739719e-22)
(-0.1332715375 -0.3838386539 9.119949056e-23)
(-0.1265350983 -0.4504358721 2.937292589e-23)
(-0.08899154061 -0.4198536383 5.660441806e-22)
(-0.01526917928 -0.2111719736 6.020786773e-22)
(-0.00518089973 0.0859804593 0)
(-0.02525550708 0.1766291196 1.465579432e-22)
(-0.0348340796 0.2205961576 -4.917147493e-23)
(-0.03640013865 0.2354859377 7.642935076e-22)
(-0.03018483007 0.2343406777 -7.005381838e-22)
(-0.01916579298 0.2241603899 4.746483109e-23)
(-0.005615147935 0.2083525851 -1.018610155e-22)
(0.008569610742 0.1881241085 -3.389890269e-22)
(0.02179886495 0.1633911261 2.062823529e-22)
(0.03262781781 0.1333242719 0)
(0.03958458842 0.0966408604 0)
(0.04117013512 0.05174056305 -2.902668803e-22)
(0.0357848405 -0.003255398972 0)
(0.02198184883 -0.07058360929 -5.512189017e-22)
(-0.001264844314 -0.1525735513 -1.492377795e-23)
(-0.03310469732 -0.2505949851 2.559742819e-23)
(-0.06909235694 -0.3599341519 2.203145658e-22)
(-0.09227826919 -0.4575424529 4.788070957e-24)
(-0.08718089887 -0.4698129418 -5.789410107e-22)
(-0.02103127144 -0.2698972298 0)
(-0.01111631564 0.1085974965 0)
(-0.04248901792 0.1947151669 -8.848483513e-22)
(-0.04795528825 0.2258195516 -5.411042322e-22)
(-0.03919535948 0.2282135569 4.543819288e-22)
(-0.01877830325 0.2182328151 -1.709986131e-24)
(0.007664314163 0.202822037 -4.561052087e-23)
(0.03667993499 0.184761978 5.696684542e-22)
(0.06582998752 0.1647118222 -2.766891429e-23)
(0.09327131102 0.1423128181 -2.069782423e-22)
(0.117389163 0.1166274938 3.142214552e-23)
(0.1365461709 0.0864114385 -3.425918221e-23)
(0.1489669288 0.0501766897 -3.690595232e-23)
(0.1525275799 0.006159166272 3.205634547e-22)
(0.1449367047 -0.04796127094 6.119608401e-22)
(0.1235159804 -0.1153052914 -5.101173716e-22)
(0.08633533535 -0.2004195652 -1.616059837e-22)
(0.03199089379 -0.3067806593 1.531306443e-22)
(-0.02362123094 -0.4239837146 7.293651285e-23)
(-0.06492413029 -0.487161279 1.913291445e-21)
(-0.02509971699 -0.3291544745 2.954991272e-21)
(-0.02004680486 0.1460727392 -4.390208937e-23)
(-0.06416406166 0.2112955845 4.417381695e-23)
(-0.05070230438 0.2177300464 1.000189e-21)
(-0.019340973 0.201467998 -8.270580817e-24)
(0.02414464939 0.1809076187 0)
(0.0715412208 0.1606933364 4.36372466e-23)
(0.1190703411 0.1416495515 -2.273853071e-22)
(0.1644767341 0.1233181844 -9.027962146e-23)
(0.206225117 0.1048117314 3.6807365e-23)
(0.2429643035 0.08507140242 -1.701655497e-23)
(0.2732207593 0.06296147778 3.42997153e-23)
(0.2952536123 0.03726293868 -6.592683631e-23)
(0.3066971074 0.006535068116 -9.303908221e-23)
(0.3049738325 -0.03087770078 1.51704482e-22)
(0.2863936261 -0.07786291007 0)
(0.2470568094 -0.1399300372 1.505613044e-22)
(0.1810922244 -0.2266299754 2.560013808e-22)
(0.096044503 -0.3443894949 0)
(-0.006697615626 -0.4552210219 -3.67563455e-21)
(-0.01922408196 -0.3777537589 -2.892620751e-21)
(-0.02591951327 0.2276828788 -9.514205209e-22)
(-0.03998324643 0.2238216517 -1.388976803e-22)
(0.03656136959 0.1810585348 -2.335582993e-22)
(0.1090503062 0.1451059086 -1.193742822e-22)
(0.1817191208 0.11724455 -4.29582891e-23)
(0.2490090746 0.09627907787 9.783190931e-23)
(0.3100336715 0.08002510636 -1.40859348e-22)
(0.3646209344 0.06656815574 1.297176173e-22)
(0.4126252504 0.05449179108 -8.62012559e-23)
(0.4536250309 0.04270895094 1.132188131e-25)
(0.4867878733 0.03032298526 1.527742454e-23)
(0.5107451374 0.01652901906 7.997208311e-23)
(0.5236597466 0.0005365143837 -1.811124624e-22)
(0.5231798024 -0.01863373269 -1.617146954e-22)
(0.505232343 -0.04286478983 -4.26295852e-23)
(0.465871509 -0.07633231208 0)
(0.3952696505 -0.1286089385 -1.846476649e-22)
(0.2916071053 -0.2208468099 8.148762654e-22)
(0.1197455108 -0.3525016903 1.631601458e-21)
(0.02670547265 -0.377549798 2.172655851e-21)
(0.2142894471 0.1347447201 9.864990264e-22)
(0.2776311188 0.09870503508 0)
(0.4316592296 0.05810414844 -2.594321817e-22)
(0.530474936 0.03846264968 -1.741667689e-22)
(0.6016965766 0.02623419153 0)
(0.6571198974 0.01831923539 -6.009098416e-23)
(0.7015213615 0.01313600926 6.378008067e-23)
(0.7376042509 0.009542127135 -1.800158187e-23)
(0.7669368421 0.006804464257 2.885976595e-23)
(0.7902106687 0.004464744324 2.315034712e-23)
(0.807455501 0.002221320041 0)
(0.8182621354 -0.0001500749845 -2.873034279e-23)
(0.8216499716 -0.002723848367 0)
(0.8162394199 -0.005712668753 2.738153122e-23)
(0.7991333151 -0.009611382908 1.421693907e-23)
(0.7679986349 -0.0150025511 -5.799401725e-23)
(0.7106555758 -0.02502519955 -2.535660496e-22)
(0.6235183983 -0.04204285408 -6.918101152e-22)
(0.4230091022 -0.09182968081 0)
(0.270567469 -0.1524021841 -2.119483717e-21)
)
;

boundaryField
{
    movingWall
    {
        type            fixedValue;
        value           uniform (1 0 0);
    }
    fixedWalls
    {
        type            fixedValue;
        value           uniform (0 0 0);
    }
    frontAndBack
    {
        type            empty;
    }
}


// ************************************************************************* //
