/*--------------------------------*- C++ -*----------------------------------*\
  =========                 |
  \\      /  F ield         | OpenFOAM: The Open Source CFD Toolbox
   \\    /   O peration     | Website:  https://openfoam.org
    \\  /    A nd           | Version:  13
     \\/     M anipulation  |
\*---------------------------------------------------------------------------*/
FoamFile
{
    format      ascii;
    class       volVectorField;
    location    "47";
    object      U;
}
// * * * * * * * * * * * * * * * * * * * * * * * * * * * * * * * * * * * * * //

dimensions      [0 1 -1 0 0 0 0];

internalField   nonuniform List<vector> 
400
(
(0.00018302639 -0.0001880116921 0)
(-0.0001370344995 2.895900803e-05 0)
(-0.001534991236 0.0002680161208 0)
(-0.003790941624 0.0004193639922 0)
(-0.006556405867 0.0004994235399 0)
(-0.009529468177 0.0005300621027 0)
(-0.01245953153 0.0005210534927 0)
(-0.01511229435 0.0004712879696 0)
(-0.0172463898 0.0003739159637 0)
(-0.018614149 0.000223483792 0)
(-0.0189891122 2.322088893e-05 0)
(-0.01821573388 -0.0002094090427 0)
(-0.01626902746 -0.0004402892717 0)
(-0.01330552764 -0.0006226588974 0)
(-0.009683417296 -0.0007077365031 0)
(-0.005931397019 -0.0006605217349 0)
(-0.002657701661 -0.0004749282519 0)
(-0.0004051309963 -0.0001817129704 0)
(0.0005424409823 0.0001378636786 0)
(0.0003104253042 0.0003034223314 0)
(-4.722446063e-05 0.0001354543204 0)
(-0.002081562235 0.001934924084 0)
(-0.00644261924 0.003765109875 0)
(-0.01260296 0.005031121006 0)
(-0.01980252542 0.005697802299 0)
(-0.0273689225 0.005841662428 0)
(-0.03469567725 0.00551325066 0)
(-0.0411990255 0.004718753373 0)
(-0.04629744681 0.003448223949 0)
(-0.0494310762 0.001721182947 0)
(-0.05012592485 -0.0003691536731 0)
(-0.04809163213 -0.00262746972 0)
(-0.04333004157 -0.004755475536 0)
(-0.03622200557 -0.006388894702 0)
(-0.0275553118 -0.007174154206 0)
(-0.01845980874 -0.006873944726 0)
(-0.01022844462 -0.005473947706 0)
(-0.004032807916 -0.003257831491 0)
(-0.0005745754318 -0.0008598078285 0)
(0.000222505311 0.0005916911865 0)
(-0.0003536605858 0.001717797704 0)
(-0.004493924256 0.00647481492 0)
(-0.01188999587 0.01068924195 0)
(-0.02163652205 0.01353941841 0)
(-0.03263307537 0.01497601196 0)
(-0.04396557698 0.0151267316 0)
(-0.0547934639 0.01408077881 0)
(-0.06429802434 0.0118602421 0)
(-0.07167485207 0.008478393592 0)
(-0.07617018108 0.004030493697 0)
(-0.07716344322 -0.001221612951 0)
(-0.07428303127 -0.006799514476 0)
(-0.06753196362 -0.01201478149 0)
(-0.05739268792 -0.01604835464 0)
(-0.04487299423 -0.01810929314 0)
(-0.03144939405 -0.01765716892 0)
(-0.01886728287 -0.01463810382 0)
(-0.008796044743 -0.009658005003 0)
(-0.00241849343 -0.004055622423 0)
(3.589778568e-05 2.796043454e-05 0)
(-0.0006316014198 0.004601009583 0)
(-0.00682374604 0.01369622695 0)
(-0.01713182559 0.02095580592 0)
(-0.03020329582 0.02567186156 0)
(-0.04459524606 0.02790944513 0)
(-0.05921229473 0.02788788173 0)
(-0.0730674321 0.02574646668 0)
(-0.08520050813 0.021531351 0)
(-0.09467006966 0.01529477282 0)
(-0.1005920635 0.007233988746 0)
(-0.1022232775 -0.00218402808 0)
(-0.0990788972 -0.01214986872 0)
(-0.09106870525 -0.02151873148 0)
(-0.07863072218 -0.02892316987 0)
(-0.06282778172 -0.0330087859 0)
(-0.04535100122 -0.03278734611 0)
(-0.02835579288 -0.02804435645 0)
(-0.01409423087 -0.01966665935 0)
(-0.004434265009 -0.009753008978 0)
(-0.0001246070197 -0.001512793059 0)
(-0.0008710928343 0.008668121499 0)
(-0.008907681784 0.02337034033 0)
(-0.02185893367 0.03423244239 0)
(-0.03793271071 0.04098666371 0)
(-0.05536529687 0.0439865671 0)
(-0.07292535673 0.04361942921 0)
(-0.08954620128 0.04010187244 0)
(-0.1041993904 0.03351039894 0)
(-0.1158686178 0.02393294472 0)
(-0.1235730148 0.01165785073 0)
(-0.1264351219 -0.002660045541 0)
(-0.1237890078 -0.01789510689 0)
(-0.1153270758 -0.03243761362 0)
(-0.1012787821 -0.04430952566 0)
(-0.08259399526 -0.05145056859 0)
(-0.0610639391 -0.05220281995 0)
(-0.0392601115 -0.0459427194 0)
(-0.02018626031 -0.03366661876 0)
(-0.006687398972 -0.01823334638 0)
(-0.0002710615042 -0.004088840233 0)
(-0.001068360895 0.01375779849 0)
(-0.01066372306 0.03519396212 0)
(-0.02587764015 0.0501651033 0)
(-0.04453821494 0.0591167507 0)
(-0.06461377679 0.06286515758 0)
(-0.08478524146 0.06205755068 0)
(-0.1039644706 0.0570254024 0)
(-0.1211169855 0.04787830929 0)
(-0.1352039208 0.03471623304 0)
(-0.1451739918 0.01787062891 0)
(-0.1500011443 -0.001883055741 0)
(-0.14877187 -0.02317246262 0)
(-0.1408375308 -0.04396448947 0)
(-0.1260437195 -0.06163397126 0)
(-0.1050251685 -0.07325135533 0)
(-0.07950017868 -0.07617685927 0)
(-0.05240392775 -0.06897044278 0)
(-0.02765568218 -0.05239855719 0)
(-0.009459336747 -0.03002448852 0)
(-0.0004464196126 -0.007850656007 0)
(-0.001215721859 0.01967632199 0)
(-0.01201666347 0.04878140693 0)
(-0.02900897199 0.06830323486 0)
(-0.04972696726 0.0796170354 0)
(-0.07194187997 0.08415614009 0)
(-0.09429778285 0.08292102219 0)
(-0.1157394935 0.07640033225 0)
(-0.1352855482 0.06473695052 0)
(-0.1519298332 0.04800421249 0)
(-0.1645906328 0.02650006607 0)
(-0.1721045088 0.001011518471 0)
(-0.1732805969 -0.026966504 0)
(-0.1670400828 -0.05507741376 0)
(-0.1526790195 -0.08006770769 0)
(-0.1302753662 -0.0979972875 0)
(-0.1011943959 -0.1048745076 0)
(-0.06852800771 -0.09785685638 0)
(-0.03716378579 -0.0768784815 0)
(-0.0131113332 -0.04597772909 0)
(-0.0007022016214 -0.01312791674 0)
(-0.001304455251 0.02619096062 0)
(-0.01289445744 0.06365881567 0)
(-0.03107986344 0.08807834862 0)
(-0.05319427409 0.1019078314 0)
(-0.07688640865 0.1073242747 0)
(-0.1008115462 0.105770214 0)
(-0.1239979325 0.09793811911 0)
(-0.1455766 0.08400741437 0)
(-0.1646405642 0.06398256002 0)
(-0.180145843 0.03803800109 0)
(-0.1908532141 0.006836282959 0)
(-0.1953299363 -0.02817570831 0)
(-0.1920488424 -0.06449074864 0)
(-0.1796436557 -0.09834442606 0)
(-0.1573843644 -0.1247421268 0)
(-0.125890268 -0.1379968482 0)
(-0.08797329644 -0.1331270462 0)
(-0.04928468176 -0.1082564662 0)
(-0.01803819923 -0.06726426176 0)
(-0.001101687393 -0.02045450846 0)
(-0.001329848049 0.03303426494 0)
(-0.01325041194 0.07927353182 0)
(-0.03195969643 0.108804347 0)
(-0.05467516092 0.1252500363 0)
(-0.07898975976 0.1316284345 0)
(-0.103610631 0.1299084885 0)
(-0.1276947067 0.1210407863 0)
(-0.1505455114 0.1052566048 0)
(-0.1714342747 0.08246136368 0)
(-0.1894553387 0.05262397248 0)
(-0.2034127677 0.01614277111 0)
(-0.2117541261 -0.02578214797 0)
(-0.2125933738 -0.07074126998 0)
(-0.2038937821 -0.1147127151 0)
(-0.1839257947 -0.1517892363 0)
(-0.1521148427 -0.1744094946 0)
(-0.1103129554 -0.1746889425 0)
(-0.06431482828 -0.1475354186 0)
(-0.02463841216 -0.0952959024 0)
(-0.00172809509 -0.03058161066 0)
(-0.001298616379 0.03992704025 0)
(-0.01310177737 0.09502755699 0)
(-0.03162809808 0.1296984795 0)
(-0.05404031784 0.1487406367 0)
(-0.07792745076 0.1560865561 0)
(-0.102082857 0.1543150834 0)
(-0.1258336256 0.1447007516 0)
(-0.1487145438 0.1275624006 0)
(-0.1702608383 0.102703885 0)
(-0.1898285678 0.06983807763 0)
(-0.2064321867 0.02898533975 0)
(-0.2186031799 -0.01909983659 0)
(-0.2243099305 -0.07240629431 0)
(-0.220993796 -0.1270517689 0)
(-0.2058880549 -0.1766141019 0)
(-0.1768491062 -0.2118106699 0)
(-0.1339433342 -0.2213085664 0)
(-0.0819960371 -0.1950968187 0)
(-0.03325844127 -0.1315342951 0)
(-0.002695370551 -0.04448492919 0)
(-0.001238789174 0.04662714454 0)
(-0.01258133138 0.1103473394 0)
(-0.03026400025 0.1499353839 0)
(-0.05141983187 0.1713409472 0)
(-0.07367099506 0.1794809466 0)
(-0.09593638008 0.1776324644 0)
(-0.117759183 0.1674713191 0)
(-0.1389626133 0.149461837 0)
(-0.1594268935 0.1233396914 0)
(-0.1788925179 0.08856042649 0)
(-0.1967669556 0.04470896236 0)
(-0.2119160692 -0.008059763695 0)
(-0.222479653 -0.06845340261 0)
(-0.2257017243 -0.1332069912 0)
(-0.2179856844 -0.1960520324 0)
(-0.1954906302 -0.2466096042 0)
(-0.1557510587 -0.2701080705 0)
(-0.1011406141 -0.2500378501 0)
(-0.04406508059 -0.1771250016 0)
(-0.004157940608 -0.06335306387 0)
(-0.001213094524 0.05301200551 0)
(-0.01200159181 0.1247975434 0)
(-0.02834523119 0.168738158 0)
(-0.04732926635 0.1919403731 0)
(-0.06664392076 0.2004098138 0)
(-0.08540348997 0.1982207309 0)
(-0.1034356974 0.1875300297 0)
(-0.1209116406 0.1690164464 0)
(-0.1381202239 0.1424098253 0)
(-0.1552766705 0.1069577465 0)
(-0.1723285837 0.06182310707 0)
(-0.1887298377 0.006492243492 0)
(-0.2031271465 -0.05867559778 0)
(-0.2130223996 -0.131542307 0)
(-0.2145017343 -0.2068377749 0)
(-0.2023052017 -0.2742117956 0)
(-0.1710738706 -0.316334439 0)
(-0.1192504491 -0.309440837 0)
(-0.05679961127 -0.2322858883 0)
(-0.006313123257 -0.08852677563 0)
(-0.001340443877 0.05920759709 0)
(-0.01193834915 0.1382400117 0)
(-0.02674860712 0.185493667 0)
(-0.04276300715 0.2094369563 0)
(-0.05780808429 0.217366345 0)
(-0.07133755848 0.2142628947 0)
(-0.08358138008 0.2028232152 0)
(-0.09512902223 0.1839924571 0)
(-0.1067176854 0.157560644 0)
(-0.1190738834 0.122649697 0)
(-0.1327524321 0.07808464335 0)
(-0.1479251896 0.02273233677 0)
(-0.1640527924 -0.04403993846 0)
(-0.1794148567 -0.1215825129 0)
(-0.1904907532 -0.2064528014 0)
(-0.1913771527 -0.2898153286 0)
(-0.1741364146 -0.3536753839 0)
(-0.1323300077 -0.3678557661 0)
(-0.07039538945 -0.2954209977 0)
(-0.009382308771 -0.1213175071 0)
(-0.001836501398 0.06578680851 0)
(-0.01334914966 0.1510299277 0)
(-0.02683396808 0.1998537753 0)
(-0.0391953472 0.2227856433 0)
(-0.04858032021 0.2287943513 0)
(-0.05506403769 0.2238665575 0)
(-0.05947275121 0.2112306818 0)
(-0.06290240165 0.1920898084 0)
(-0.06655148792 0.1663243633 0)
(-0.07162908806 0.133010259 0)
(-0.07926139677 0.09076378627 0)
(-0.09034783862 0.03799342562 0)
(-0.1052989174 -0.02680791523 0)
(-0.1235658953 -0.1045083234 0)
(-0.1428206164 -0.1940423999 0)
(-0.1577085963 -0.2895972821 0)
(-0.1588644317 -0.3752479704 0)
(-0.1350415252 -0.4173642292 0)
(-0.08250035416 -0.3620854593 0)
(-0.01351838632 -0.1625449532 0)
(-0.003073788835 0.07406226029 0)
(-0.01772141134 0.1642161959 0)
(-0.0304269848 0.2117375347 0)
(-0.03831230526 0.2309202845 0)
(-0.04033174226 0.2330303145 0)
(-0.03768996896 0.2250681651 0)
(-0.03209125559 0.2106438428 0)
(-0.02523624726 0.1910973779 0)
(-0.01877055337 0.1663543953 0)
(-0.01430414873 0.1354824899 0)
(-0.01341652525 0.09701514375 0)
(-0.01761575971 0.04912625548 0)
(-0.02820362349 -0.01024697497 0)
(-0.04594512665 -0.08317280258 0)
(-0.07030517021 -0.1709634209 0)
(-0.0978098244 -0.2718627108 0)
(-0.1195941923 -0.3750434117 0)
(-0.1210370155 -0.4484758265 0)
(-0.08897287566 -0.4243257933 0)
(-0.0184954787 -0.2117323204 0)
(-0.005570054295 0.08658336075 0)
(-0.02706049765 0.1796347348 0)
(-0.03926468916 0.2209704909 0)
(-0.04078515579 0.2322925425 0)
(-0.03262521853 0.2279214478 0)
(-0.01797035089 0.2155653704 0)
(0.0002689196627 0.1988052745 0)
(0.01972841539 0.1788354704 0)
(0.03838060066 0.1554837885 0)
(0.05434476262 0.127787193 0)
(0.06575755502 0.09428842346 0)
(0.07069967575 0.05315103443 0)
(0.06718840578 0.00215797014 0)
(0.05330220731 -0.06135948383 0)
(0.02764316279 -0.140449437 0)
(-0.009174107736 -0.2374762108 0)
(-0.05109499841 -0.3491535879 0)
(-0.08304224979 -0.4515807011 0)
(-0.08339169357 -0.4711492428 0)
(-0.02311135002 -0.2667464796 0)
(-0.009891595996 0.1087088852 0)
(-0.04292696301 0.1996173126 0)
(-0.05208291473 0.2258252913 0)
(-0.04154124977 0.2234041564 0)
(-0.01751501336 0.2097086926 0)
(0.01372009443 0.1919555838 0)
(0.04798290226 0.1728380727 0)
(0.08243895165 0.1529221311 0)
(0.114922177 0.1317011904 0)
(0.143530245 0.1081140218 0)
(0.166361549 0.08077430682 0)
(0.1813412951 0.0480221212 0)
(0.1861009372 0.007852824749 0)
(0.1779392018 -0.04233490395 0)
(0.1539107636 -0.1062252728 0)
(0.111641505 -0.1891189785 0)
(0.05243810534 -0.295997547 0)
(-0.01243182558 -0.4177436417 0)
(-0.05670838538 -0.4889606134 0)
(-0.02464992291 -0.3240508705 0)
(-0.01781254234 0.1516624027 0)
(-0.06127711906 0.2236361061 0)
(-0.05220141233 0.2176997279 0)
(-0.01422521964 0.1950127886 0)
(0.03562461 0.1711605104 0)
(0.08889316444 0.1491866611 0)
(0.1415887989 0.1294863319 0)
(0.1914206622 0.1114682902 0)
(0.2367892247 0.09409593026 0)
(0.2762927755 0.07619045823 0)
(0.3084002153 0.0565209789 0)
(0.3312438572 0.03376686975 0)
(0.3424467343 0.006413741996 0)
(0.3390164562 -0.02752004899 0)
(0.3171489389 -0.07119462067 0)
(0.2722640788 -0.1305494632 0)
(0.2001675287 -0.2164962863 0)
(0.103021673 -0.3383553108 0)
(0.004379925716 -0.4567880972 0)
(-0.01595770414 -0.3693292592 0)
(-0.02422604212 0.2082601925 0)
(-0.03791855095 0.2303516983 0)
(0.03727847577 0.1765396144 0)
(0.125085921 0.1368792007 0)
(0.2058961485 0.1090998351 0)
(0.2781196437 0.08826302647 0)
(0.3424157807 0.07216748038 0)
(0.3990659011 0.05922447094 0)
(0.4481126967 0.04805398446 0)
(0.4893237349 0.03752495814 0)
(0.52202206 0.02669972428 0)
(0.5449757094 0.01473228542 0)
(0.5563047614 0.0007509171189 0)
(0.5533604377 -0.01631535939 0)
(0.5323317795 -0.03830577995 0)
(0.487757522 -0.06916157696 0)
(0.4111503689 -0.1191032734 0)
(0.2908941871 -0.2093506086 0)
(0.1331373821 -0.3382878167 0)
(0.03877755944 -0.3403663582 0)
(0.2418843713 0.109130844 0)
(0.3134491022 0.0971141433 0)
(0.4443117456 0.05696602848 0)
(0.5496261443 0.03510791023 0)
(0.6240719905 0.02373908698 0)
(0.6796355726 0.01670957198 0)
(0.7235327953 0.01197941314 0)
(0.758856939 0.008692738438 0)
(0.7871553485 0.00625288085 0)
(0.8092243802 0.004229026111 0)
(0.8252423084 0.002327042916 0)
(0.8348403955 0.0003390347433 0)
(0.8371578789 -0.001911257743 0)
(0.8307773599 -0.004592256942 0)
(0.8133992456 -0.008029375446 0)
(0.7811332836 -0.01288433147 0)
(0.7256885248 -0.02122778457 0)
(0.6298611528 -0.03809095104 0)
(0.4592681722 -0.08554806558 0)
(0.3048943342 -0.1256974619 0)
)
;

boundaryField
{
    movingWall
    {
        type            fixedValue;
        value           uniform (1 0 0);
    }
    fixedWalls
    {
        type            fixedValue;
        value           uniform (0 0 0);
    }
    frontAndBack
    {
        type            empty;
    }
}


// ************************************************************************* //
