/*--------------------------------*- C++ -*----------------------------------*\
  =========                 |
  \\      /  F ield         | OpenFOAM: The Open Source CFD Toolbox
   \\    /   O peration     | Website:  https://openfoam.org
    \\  /    A nd           | Version:  13
     \\/     M anipulation  |
\*---------------------------------------------------------------------------*/
FoamFile
{
    format      ascii;
    class       volVectorField;
    location    "47";
    object      U_0;
}
// * * * * * * * * * * * * * * * * * * * * * * * * * * * * * * * * * * * * * //

dimensions      [0 1 -1 0 0 0 0];

internalField   nonuniform List<vector> 
400
(
(0.0001824899516 -0.0001883485231 0)
(-0.0001390473486 2.914664536e-05 0)
(-0.001535187685 0.0002681013288 0)
(-0.003790500705 0.0004194317135 0)
(-0.006555330085 0.0004994505808 0)
(-0.009527697312 0.0005300496114 0)
(-0.01245704918 0.0005210112428 0)
(-0.0151091505 0.0004712306939 0)
(-0.01724270516 0.0003738567761 0)
(-0.01861013528 0.0002234363867 0)
(-0.01898506533 2.320190236e-05 0)
(-0.01821198726 -0.0002093855406 0)
(-0.01626588757 -0.0004402212958 0)
(-0.01330322842 -0.0006225584258 0)
(-0.009682062596 -0.0007076295293 0)
(-0.005930906561 -0.0006604438508 0)
(-0.002657825356 -0.0004749086363 0)
(-0.000405525653 -0.0001817622533 0)
(0.0005420891502 0.0001377552719 0)
(0.0003103171253 0.0003033173685 0)
(-4.716073242e-05 0.0001337069515 0)
(-0.002083628893 0.001932164985 0)
(-0.006442803458 0.003763628966 0)
(-0.01260136189 0.005029762096 0)
(-0.0197989537 0.005696379187 0)
(-0.02736334301 0.00584020225 0)
(-0.03468816905 0.005511847701 0)
(-0.0411898571 0.004717556453 0)
(-0.04628705829 0.003447383933 0)
(-0.04942005219 0.001720826404 0)
(-0.05011495201 -0.0003689211921 0)
(-0.04808144646 -0.00262659922 0)
(-0.04332130276 -0.00475405601 0)
(-0.03621519437 -0.006387162504 0)
(-0.02755065591 -0.007172413941 0)
(-0.01845720346 -0.006872504133 0)
(-0.0102274596 -0.005473054241 0)
(-0.00403281055 -0.003257582868 0)
(-0.0005748966798 -0.0008600593273 0)
(0.0002223802483 0.0005913354488 0)
(-0.0003535427345 0.00171728471 0)
(-0.00449350853 0.006471902378 0)
(-0.01188768605 0.01068613484 0)
(-0.0216317231 0.01353591553 0)
(-0.03262544863 0.01497225469 0)
(-0.04395507602 0.01512297906 0)
(-0.05478026186 0.01407731701 0)
(-0.06428256576 0.01185739529 0)
(-0.07165782084 0.008476513212 0)
(-0.0761524416 0.004029890124 0)
(-0.07714595058 -0.001220749081 0)
(-0.07426677737 -0.00679718733 0)
(-0.06751785517 -0.01201123992 0)
(-0.05738139752 -0.01604409623 0)
(-0.04486484429 -0.01810497662 0)
(-0.03144428968 -0.01765347253 0)
(-0.01886473035 -0.01463556765 0)
(-0.008795250475 -0.009656864538 0)
(-0.002418518836 -0.004055632089 0)
(3.579775616e-05 2.746376235e-05 0)
(-0.0006313844297 0.00459986481 0)
(-0.00682210459 0.01369169117 0)
(-0.01712754422 0.02094999025 0)
(-0.03019565699 0.02566515329 0)
(-0.04458396329 0.02790233982 0)
(-0.05919741066 0.02788091047 0)
(-0.07304927093 0.02574018218 0)
(-0.08517968039 0.02152634648 0)
(-0.09464742552 0.01529163598 0)
(-0.100568642 0.007233195574 0)
(-0.102200206 -0.002182224819 0)
(-0.09905733498 -0.01214554658 0)
(-0.09104971503 -0.02151234082 0)
(-0.07861512779 -0.02891551482 0)
(-0.06281604338 -0.03300092278 0)
(-0.04534313946 -0.03278039847 0)
(-0.02835137814 -0.02803926319 0)
(-0.01409240305 -0.01966388735 0)
(-0.004433875665 -0.009752285308 0)
(-0.0001246905406 -0.001513252463 0)
(-0.0008708223973 0.008665783825 0)
(-0.008905271292 0.02336336043 0)
(-0.02185316032 0.03422313758 0)
(-0.03792284291 0.04097599185 0)
(-0.05535116567 0.04397543709 0)
(-0.0729071192 0.04360868498 0)
(-0.08952429227 0.04009235787 0)
(-0.1041745272 0.0335029821 0)
(-0.1158417511 0.02392843295 0)
(-0.1235452674 0.0116568561 0)
(-0.1264076768 -0.002657232447 0)
(-0.1237630935 -0.01788861991 0)
(-0.1153038539 -0.03242806989 0)
(-0.1012592163 -0.04429800462 0)
(-0.08257873464 -0.05143851224 0)
(-0.06105321703 -0.05219183114 0)
(-0.03925366527 -0.04593421885 0)
(-0.02018325974 -0.03366142777 0)
(-0.006686536587 -0.01823133903 0)
(-0.0002711344884 -0.004089042823 0)
(-0.001068057653 0.013753928 0)
(-0.01066084603 0.03518391028 0)
(-0.02587097215 0.0501517089 0)
(-0.04452701402 0.05910159036 0)
(-0.06459796633 0.06284956734 0)
(-0.08476508491 0.06204271147 0)
(-0.1039404786 0.05701243669 0)
(-0.1210899095 0.04786831588 0)
(-0.1351747116 0.0347101983 0)
(-0.1451437546 0.01786928623 0)
(-0.149971015 -0.001879375867 0)
(-0.1487430432 -0.02316392044 0)
(-0.1408111862 -0.04395180456 0)
(-0.1260209199 -0.0616184205 0)
(-0.1050067729 -0.07323470234 0)
(-0.07948670679 -0.07616117461 0)
(-0.05239538369 -0.06895770554 0)
(-0.027651411 -0.05239012212 0)
(-0.009457951404 -0.03002060693 0)
(-0.0004464788872 -0.007850362387 0)
(-0.001215420182 0.01967076391 0)
(-0.012013667 0.04876797882 0)
(-0.02900212026 0.0682854837 0)
(-0.04971553911 0.07959720314 0)
(-0.0719258621 0.08413597251 0)
(-0.0942774962 0.08290201725 0)
(-0.1157154786 0.07638386642 0)
(-0.1352585287 0.06472431555 0)
(-0.151900677 0.04799652552 0)
(-0.1645603269 0.02649815185 0)
(-0.1720740412 0.001015748057 0)
(-0.1732510158 -0.02695628089 0)
(-0.1670124705 -0.05506193635 0)
(-0.1526544369 -0.08004833987 0)
(-0.130254817 -0.097976001 0)
(-0.101178688 -0.1048537535 0)
(-0.0685175185 -0.0978392022 0)
(-0.0371582361 -0.07686602033 0)
(-0.01310939056 -0.04597135664 0)
(-0.0007022332839 -0.01312686684 0)
(-0.001304200202 0.02618376767 0)
(-0.01289174066 0.06364212782 0)
(-0.03107361925 0.08805642213 0)
(-0.05318385561 0.1018835453 0)
(-0.07687184703 0.1072997836 0)
(-0.1007931657 0.1057473032 0)
(-0.1239762568 0.09791837704 0)
(-0.1455522779 0.0839922773 0)
(-0.1646143283 0.06397322244 0)
(-0.1801184909 0.03803533542 0)
(-0.1908254981 0.006840682466 0)
(-0.1953026192 -0.02816437046 0)
(-0.1920227382 -0.06447316108 0)
(-0.1796196631 -0.09832191318 0)
(-0.1573634814 -0.1247167027 0)
(-0.1258734845 -0.1379711619 0)
(-0.08796142015 -0.1331041761 0)
(-0.04927801355 -0.1082393926 0)
(-0.01803571081 -0.06725480017 0)
(-0.001101671889 -0.02045241626 0)
(-0.001329681798 0.03302570814 0)
(-0.01324835899 0.07925410386 0)
(-0.03195486413 0.1087788732 0)
(-0.05466701568 0.1252219442 0)
(-0.07897834939 0.1316002806 0)
(-0.1035962467 0.1298823161 0)
(-0.1276778226 0.1210183491 0)
(-0.150526674 0.1052394249 0)
(-0.1714140587 0.08245065518 0)
(-0.1894343012 0.05262058505 0)
(-0.2033913561 0.01614707697 0)
(-0.2117327112 -0.02577028108 0)
(-0.2125723351 -0.07072248033 0)
(-0.2038736486 -0.1146881926 0)
(-0.1839073136 -0.1517608248 0)
(-0.1520989581 -0.1743797536 0)
(-0.1103008487 -0.1746612222 0)
(-0.06430749457 -0.1475135741 0)
(-0.02463545918 -0.09528290065 0)
(-0.001728007663 -0.03057817142 0)
(-0.001298570666 0.0399176039 0)
(-0.01310071485 0.09500626878 0)
(-0.03162539406 0.1296704943 0)
(-0.05403557862 0.1487098096 0)
(-0.07792070736 0.1560558038 0)
(-0.1020743447 0.1542866816 0)
(-0.1258237444 0.1446765831 0)
(-0.1487037142 0.1275440078 0)
(-0.1702494723 0.1026924412 0)
(-0.1898169693 0.06983432653 0)
(-0.2064204605 0.02898953494 0)
(-0.2185912755 -0.01908792203 0)
(-0.2242977201 -0.07238728945 0)
(-0.2209812411 -0.1270267058 0)
(-0.2058753495 -0.176584466 0)
(-0.1768368449 -0.2117786015 0)
(-0.1339328353 -0.2212772734 0)
(-0.08198891183 -0.1950707308 0)
(-0.03325519416 -0.1315176236 0)
(-0.002695173831 -0.04447986238 0)
(-0.001238879448 0.04661747691 0)
(-0.01258149782 0.1103253626 0)
(-0.03026394803 0.1499062784 0)
(-0.05141933297 0.1713088302 0)
(-0.07367003045 0.1794490148 0)
(-0.09593509519 0.1776031859 0)
(-0.1177578723 0.1674466804 0)
(-0.1389615406 0.1494433396 0)
(-0.1594262913 0.1233284047 0)
(-0.1788924634 0.08855692919 0)
(-0.196767262 0.04471327868 0)
(-0.2119162984 -0.008048049896 0)
(-0.2224791886 -0.06843502621 0)
(-0.2256999047 -0.1331828667 0)
(-0.2179819534 -0.1960232183 0)
(-0.1954849447 -0.246577578 0)
(-0.1557444628 -0.2700754123 0)
(-0.101134987 -0.250008916 0)
(-0.04406188468 -0.1771050501 0)
(-0.004157600313 -0.06334621317 0)
(-0.001213316953 0.05300283522 0)
(-0.01200309224 0.1247762311 0)
(-0.02834806325 0.1687095709 0)
(-0.0473333937 0.1919086591 0)
(-0.06664924659 0.2003783325 0)
(-0.08541001412 0.198192073 0)
(-0.1034435563 0.1875062603 0)
(-0.1209209029 0.1689990189 0)
(-0.1381308891 0.1423996498 0)
(-0.1552885896 0.1069551918 0)
(-0.1723413395 0.0618279403 0)
(-0.1887427487 0.006503768345 0)
(-0.2031392743 -0.05865832835 0)
(-0.2130325665 -0.1315202248 0)
(-0.2145087097 -0.2068115916 0)
(-0.2023082293 -0.2741822953 0)
(-0.1710732864 -0.3163032249 0)
(-0.1192477929 -0.309411349 0)
(-0.05679707918 -0.2322638098 0)
(-0.006312639811 -0.08851825739 0)
(-0.001340775971 0.0591996495 0)
(-0.01194110839 0.138220764 0)
(-0.02675420335 0.1854673111 0)
(-0.0427716129 0.2094073915 0)
(-0.05781950941 0.2173369488 0)
(-0.07135158587 0.2142362912 0)
(-0.08359789171 0.2028014831 0)
(-0.0951478306 0.1839770375 0)
(-0.1067384961 0.1575523232 0)
(-0.1190962668 0.1226486119 0)
(-0.132775799 0.07809031033 0)
(-0.1479487597 0.02274376792 0)
(-0.1640755593 -0.04402394229 0)
(-0.179435494 -0.1215630454 0)
(-0.1905077188 -0.2064304677 0)
(-0.1913891713 -0.2897903999 0)
(-0.1741429004 -0.3536484116 0)
(-0.1323315548 -0.3678286047 0)
(-0.07039434469 -0.2953988154 0)
(-0.009381717884 -0.1213078056 0)
(-0.001836905075 0.06578072176 0)
(-0.01335290791 0.1510140244 0)
(-0.02684183951 0.1998312198 0)
(-0.03920771929 0.2227598182 0)
(-0.04859691625 0.228768482 0)
(-0.05508437758 0.2238432083 0)
(-0.0594963524 0.2112118428 0)
(-0.06292871781 0.1920768741 0)
(-0.06657988359 0.166318074 0)
(-0.0716588404 0.1330106398 0)
(-0.07929176585 0.09077018659 0)
(-0.09037808406 0.03800467209 0)
(-0.1053281918 -0.02679326035 0)
(-0.123593099 -0.1044915858 0)
(-0.1428443987 -0.1940243617 0)
(-0.1577275251 -0.2895779972 0)
(-0.1588771526 -0.3752271096 0)
(-0.135047529 -0.4173419252 0)
(-0.08250144517 -0.3620655717 0)
(-0.01351778152 -0.1625348449 0)
(-0.003074209033 0.07405848598 0)
(-0.01772572641 0.164204608 0)
(-0.03043624891 0.2117200197 0)
(-0.03832711275 0.2308994628 0)
(-0.04035177462 0.2330090457 0)
(-0.03771451785 0.2250488285 0)
(-0.03211946522 0.2106282912 0)
(-0.02526716378 0.1910869163 0)
(-0.01880317231 0.1663497426 0)
(-0.01433747323 0.1354836876 0)
(-0.01344969866 0.09702157121 0)
(-0.01764809415 0.04913676463 0)
(-0.02823449481 -0.01023386819 0)
(-0.04597387978 -0.08315859215 0)
(-0.07033100691 -0.1709492212 0)
(-0.09783160676 -0.2718487283 0)
(-0.1196103413 -0.3750289486 0)
(-0.1210463034 -0.4484598603 0)
(-0.08897609408 -0.424310338 0)
(-0.01849511699 -0.2117228611 0)
(-0.005570399584 0.0865820368 0)
(-0.02706467481 0.179627913 0)
(-0.03927396963 0.2209587276 0)
(-0.04080033141 0.2322774803 0)
(-0.032646043 0.2279053728 0)
(-0.01799602254 0.2155503261 0)
(0.0002394879086 0.1987929229 0)
(0.01969645512 0.1788270258 0)
(0.03834738485 0.1554799912 0)
(0.05431149501 0.1277882255 0)
(0.06572521494 0.09429387793 0)
(0.07066899551 0.05315998517 0)
(0.06715990921 0.002169078341 0)
(0.05327614949 -0.06134771248 0)
(0.02761976071 -0.1404383594 0)
(-0.009194354164 -0.2374664046 0)
(-0.05111103343 -0.3491446224 0)
(-0.08305279715 -0.4515713669 0)
(-0.08339639255 -0.471139591 0)
(-0.02311153826 -0.2667390403 0)
(-0.009891692378 0.1087096071 0)
(-0.04292998922 0.1996148465 0)
(-0.05209028782 0.2258190916 0)
(-0.04155394594 0.2233948498 0)
(-0.01753304802 0.2096978035 0)
(0.0136973087 0.1919447516 0)
(0.04795638521 0.1728287321 0)
(0.08240996264 0.1529154052 0)
(0.1148920799 0.1316978272 0)
(0.1435003256 0.10811435 0)
(0.1663328656 0.08077816328 0)
(0.1813146801 0.04802885672 0)
(0.1860769722 0.007861373428 0)
(0.1779180181 -0.04232586288 0)
(0.1538923599 -0.1062170726 0)
(0.1116257935 -0.1891124729 0)
(0.05242521096 -0.2959926771 0)
(-0.01244111707 -0.4177393781 0)
(-0.0567132638 -0.4889558767 0)
(-0.02465051602 -0.3240462679 0)
(-0.01781217093 0.1516640296 0)
(-0.06127798042 0.2236365036 0)
(-0.05220491917 0.217697722 0)
(-0.01423254142 0.1950083065 0)
(0.03561300774 0.171154303 0)
(0.08887732101 0.1491798398 0)
(0.1415692711 0.1294800299 0)
(0.1913984318 0.1114634601 0)
(0.2367655372 0.09409323185 0)
(0.2762688458 0.07619024675 0)
(0.3083771036 0.05652322467 0)
(0.3312225338 0.03377115851 0)
(0.3424279984 0.006419314357 0)
(0.3390006689 -0.02751422604 0)
(0.3171362389 -0.07118949033 0)
(0.2722541305 -0.1305457739 0)
(0.2001595913 -0.2164941765 0)
(0.1030157839 -0.3383541702 0)
(0.004376373621 -0.4567867055 0)
(-0.01595844239 -0.3693272198 0)
(-0.02422541916 0.2082615764 0)
(-0.03791752701 0.2303530685 0)
(0.03727892122 0.1765397174 0)
(0.1250846341 0.1368777578 0)
(0.2058921755 0.1090971666 0)
(0.2781124512 0.08825972559 0)
(0.3424053201 0.07216423383 0)
(0.3990526277 0.05922188641 0)
(0.4480974912 0.04805249639 0)
(0.4893074815 0.03752490249 0)
(0.5220061313 0.02670099556 0)
(0.5449612651 0.01473459842 0)
(0.5562926006 0.0007538514096 0)
(0.5533510779 -0.01631243646 0)
(0.53232509 -0.0383033395 0)
(0.4877531505 -0.06916005998 0)
(0.4111475617 -0.1191027651 0)
(0.2908921835 -0.2093507381 0)
(0.1331360196 -0.3382879098 0)
(0.03877683953 -0.3403659666 0)
(0.2418847237 0.1091312637 0)
(0.31345038 0.09711473972 0)
(0.4443135688 0.05696626174 0)
(0.5496275784 0.03510777011 0)
(0.6240721042 0.02373870394 0)
(0.6796337921 0.01670911265 0)
(0.7235290377 0.01197904507 0)
(0.7588515483 0.008692570509 0)
(0.7871489399 0.006252975835 0)
(0.8092176939 0.004229340601 0)
(0.8252361677 0.002327480594 0)
(0.8348354577 0.0003395242603 0)
(0.8371543885 -0.001910804227 0)
(0.8307756188 -0.004591901068 0)
(0.8133989336 -0.008029179515 0)
(0.7811340574 -0.0128844508 0)
(0.7256894661 -0.02122815869 0)
(0.6298617023 -0.03809130768 0)
(0.4592682358 -0.08554838313 0)
(0.3048942539 -0.1256974945 0)
)
;

boundaryField
{
    movingWall
    {
        type            calculated;
        value           uniform (1 0 0);
    }
    fixedWalls
    {
        type            calculated;
        value           uniform (0 0 0);
    }
    frontAndBack
    {
        type            empty;
    }
}


// ************************************************************************* //
