/*--------------------------------*- C++ -*----------------------------------*\
  =========                 |
  \\      /  F ield         | OpenFOAM: The Open Source CFD Toolbox
   \\    /   O peration     | Website:  https://openfoam.org
    \\  /    A nd           | Version:  13
     \\/     M anipulation  |
\*---------------------------------------------------------------------------*/
FoamFile
{
    format      ascii;
    class       vectorField;
    location    "37.25";
    object      U_all;
}
// * * * * * * * * * * * * * * * * * * * * * * * * * * * * * * * * * * * * * //


400
(
(1.099785126e-05 -3.783748671e-05 0)
(-0.0006661038801 0.0004130416445 -1.550760024e-23)
(-0.002185376731 0.0009203934171 0)
(-0.004047833177 0.001312780587 0)
(-0.005971867799 0.001535065481 6.844877294e-25)
(-0.007762782394 0.001569847653 4.151256663e-24)
(-0.009284544033 0.001423563502 -7.371489096e-24)
(-0.01043593976 0.001119723258 7.53273507e-24)
(-0.01113681233 0.0006960826472 -2.095569927e-25)
(-0.01132710939 0.0002030778265 -3.994912031e-24)
(-0.01097177082 -0.000300233245 5.803918364e-24)
(-0.01007232658 -0.0007475160457 -5.929823566e-23)
(-0.00867987927 -0.001075562425 -6.552945495e-23)
(-0.006902852609 -0.001233044219 -7.784530435e-23)
(-0.004910737912 -0.001192638522 4.573722264e-24)
(-0.002927231751 -0.0009619206404 -4.138074476e-24)
(-0.001205298953 -0.0005912120662 -1.998851225e-22)
(-1.906838162e-05 -0.0001698833721 0)
(0.0005181539656 0.0001720853079 1.51005494e-25)
(0.0002227515242 0.0003059785512 -2.55888809e-24)
(-0.0002633666941 0.0008289618366 1.383410498e-25)
(-0.002703308998 0.003383837919 1.560547797e-23)
(-0.006907278052 0.005604498094 1.554526038e-25)
(-0.01195231892 0.007008204643 -8.494007751e-25)
(-0.01713504176 0.007553773525 1.161924893e-24)
(-0.02197535038 0.007294197924 1.306655308e-23)
(-0.02611075585 0.006321893294 1.390834243e-24)
(-0.02926564161 0.00475419289 -7.284380609e-24)
(-0.03122672391 0.002737151998 1.015373006e-23)
(-0.03184200352 0.0004524064546 4.510296224e-24)
(-0.03102760844 -0.001884143649 -6.319217204e-24)
(-0.02879316114 -0.004023028032 2.961778236e-24)
(-0.02527137983 -0.005708352766 3.8956694e-23)
(-0.02073194656 -0.006707407891 -1.954847818e-24)
(-0.01558962539 -0.006854139114 3.754634356e-24)
(-0.01038513378 -0.006097464298 -9.741446321e-23)
(-0.005730272202 -0.004546187589 9.638163295e-23)
(-0.002233366986 -0.002507420713 -3.962029246e-25)
(-0.0001817753734 -0.0005023738699 4.061952517e-25)
(8.343544253e-05 0.0006099247106 0)
(-0.000418824201 0.002935076346 -2.910849927e-25)
(-0.004647876192 0.008804010557 1.702645105e-23)
(-0.01137196022 0.01324041886 -8.278188043e-24)
(-0.0193272887 0.01579203597 -2.074699679e-25)
(-0.02747411212 0.01652999549 2.03817535e-25)
(-0.03511778074 0.01564441241 6.896252715e-27)
(-0.04171343851 0.0133599726 -1.223232823e-24)
(-0.04683570623 0.009919768925 -4.553088593e-25)
(-0.0501498778 0.005602432564 -1.063197797e-23)
(-0.05141230786 0.0007444211649 0)
(-0.05047792224 -0.004241778665 0)
(-0.04733705371 -0.008887184335 2.671136405e-23)
(-0.04215927173 -0.01268176616 2.813147062e-23)
(-0.03531436885 -0.01513604834 -1.646241909e-24)
(-0.02738995911 -0.01586189258 4.846119394e-23)
(-0.01917005693 -0.01467333962 9.419734637e-23)
(-0.0115609064 -0.01169360304 3.976120731e-23)
(-0.005465411529 -0.007450743534 4.143367598e-25)
(-0.001451099293 -0.00293604476 1.072964156e-25)
(-9.072695341e-05 0.0002258757706 0)
(-0.0005024635038 0.006045347197 -4.249414962e-23)
(-0.006402739726 0.01637074929 -1.692868182e-23)
(-0.01553502221 0.02355932768 8.205039029e-24)
(-0.02627911576 0.02744161768 0)
(-0.03728745984 0.02832101384 0)
(-0.04769036414 0.02658771851 0)
(-0.05679661706 0.02263119797 -4.474772649e-26)
(-0.06405382529 0.01683608928 -2.135415026e-24)
(-0.06901079919 0.009622182214 0)
(-0.07130826294 0.001491050692 1.635749389e-24)
(-0.07070852025 -0.006936501079 2.802956937e-25)
(-0.06713038094 -0.01493018399 -2.81080515e-25)
(-0.06069904512 -0.02166727613 0)
(-0.05180749685 -0.02631605176 4.133531799e-23)
(-0.04114991062 -0.02816070324 -4.681824302e-23)
(-0.02971969811 -0.02677371776 -2.762183445e-23)
(-0.01873716426 -0.0222153021 -3.961273381e-23)
(-0.009488027125 -0.0152192206 7.795842042e-25)
(-0.00297687949 -0.007298194976 9.789811585e-23)
(-0.000231879423 -0.0008661690103 0)
(-0.0005316132823 0.01009501264 4.27007936e-23)
(-0.007983591574 0.02595218725 4.784458804e-25)
(-0.01939687087 0.03642881708 -4.675183205e-25)
(-0.03282381745 0.04185519491 0)
(-0.04664687967 0.04289484069 7.782042215e-25)
(-0.05985228326 0.04020073045 -7.674141458e-25)
(-0.07163289772 0.03434740916 3.672024283e-23)
(-0.0813274943 0.02585663604 1.847939813e-23)
(-0.08836599116 0.0152729816 6.238159344e-24)
(-0.09225467525 0.003246148301 -1.637655065e-24)
(-0.09260377825 -0.009407828254 0)
(-0.0891755371 -0.02167477353 4.371036754e-25)
(-0.081959777 -0.03236744213 1.009154084e-23)
(-0.07126884185 -0.04021249215 -4.349580607e-23)
(-0.05782017866 -0.04402045433 1.933060994e-24)
(-0.04278582293 -0.04294828574 4.217767184e-23)
(-0.02775449899 -0.03683346342 -3.84253412e-25)
(-0.01455062083 -0.02652720639 0)
(-0.004859461488 -0.01408454393 5.436537661e-23)
(-0.0003641480638 -0.002846953817 -2.565020302e-22)
(-0.0005272211094 0.01499927264 9.840912045e-23)
(-0.009377923524 0.03739021201 -4.907316085e-25)
(-0.02288182287 0.05170221531 0)
(-0.0388304267 0.05894181498 0)
(-0.05538655549 0.06025573039 -8.731837472e-23)
(-0.07142875114 0.05661899674 -8.498809555e-23)
(-0.08606652313 0.04880167695 -4.06725334e-23)
(-0.09855083945 0.03743979824 -1.504240306e-23)
(-0.1081945091 0.02315983695 -5.368280545e-24)
(-0.1143444502 0.006709680878 -8.174659286e-24)
(-0.1164045983 -0.01093291588 6.600756087e-24)
(-0.1138937187 -0.0284894413 8.825993956e-24)
(-0.1065486789 -0.04437045081 -1.892315252e-23)
(-0.09446802438 -0.0567533244 4.604531236e-24)
(-0.07826855625 -0.06378297321 0)
(-0.05922894498 -0.06393494196 -1.573150869e-23)
(-0.03933981281 -0.05653815304 -2.420229667e-26)
(-0.02114188471 -0.04235808485 0)
(-0.007318701497 -0.02398229133 -1.520590643e-22)
(-0.0005216163055 -0.005925544706 6.056154501e-22)
(-0.0004990820828 0.02064573953 -9.773869653e-23)
(-0.01052950774 0.0504543674 2.831922499e-22)
(-0.02582956937 0.06912509818 1.526832519e-22)
(-0.04402137425 0.07849255861 3.619197565e-24)
(-0.06310737904 0.08029474425 -7.31935557e-23)
(-0.08190403445 0.0758804116 9.04324752e-23)
(-0.09947761721 0.06621689304 -3.590128217e-24)
(-0.1150227156 0.05201694132 -1.729128712e-24)
(-0.1277518942 0.0339235808 2.524099395e-24)
(-0.1368472353 0.01270233328 7.382314042e-24)
(-0.1414710274 -0.01058781665 -6.50052549e-24)
(-0.1408247943 -0.03446023258 -9.787347569e-24)
(-0.134274575 -0.05692770247 -3.261751182e-23)
(-0.1215450051 -0.07553314532 -3.661005555e-23)
(-0.1029672504 -0.08754258797 5.644968187e-25)
(-0.07976368743 -0.09039207986 0)
(-0.054266817 -0.08244512331 0)
(-0.02987160505 -0.06397735865 -2.905974898e-24)
(-0.01066284987 -0.03798794212 2.970422138e-24)
(-0.000735093546 -0.01050089383 1.027872137e-22)
(-0.0004479163781 0.02687250403 0)
(-0.01134923023 0.0648075579 2.001981445e-22)
(-0.0280159919 0.08829614945 8.962053341e-23)
(-0.0479985651 0.1001234697 0)
(-0.06920600808 0.1027076313 1.569857926e-22)
(-0.0904437168 0.09781576528 0)
(-0.1107831501 0.08661101393 -1.428375014e-22)
(-0.1294093562 0.0698394926 6.515480485e-24)
(-0.1454771417 0.04808231697 0)
(-0.1580351584 0.02201755691 0)
(-0.1660133223 -0.007334432591 -1.374391764e-24)
(-0.168267133 -0.03838838479 -9.316560462e-25)
(-0.1637064484 -0.06883974166 1.491952515e-22)
(-0.1515208571 -0.09558273754 -4.704648008e-23)
(-0.1315134394 -0.1148298443 -2.560880488e-24)
(-0.104559595 -0.1225703201 1.534638733e-24)
(-0.07309349006 -0.1155517782 -1.558846554e-24)
(-0.0413502098 -0.0928311421 0)
(-0.01525230086 -0.05740766878 3.203767962e-24)
(-0.001044308957 -0.0171471428 -1.012902846e-21)
(-0.0003744664627 0.03346303673 0)
(-0.01175005901 0.07998916747 -1.128261132e-22)
(-0.02920707528 0.1086390681 -6.191095666e-22)
(-0.05031744343 0.1232233705 -3.755280489e-22)
(-0.0729631648 0.1269096759 0)
(-0.09598958974 0.1219255399 4.119430026e-22)
(-0.118527334 0.1096348454 1.260913219e-22)
(-0.139814626 0.09078244597 -5.581796612e-24)
(-0.1590221378 0.06581392558 5.554169717e-24)
(-0.1751460823 0.03520881176 0)
(-0.1869559799 -0.0001967397527 2.912115861e-23)
(-0.1930172463 -0.03889752997 4.695801421e-24)
(-0.1917809735 -0.07843886682 -1.076795548e-22)
(-0.181787427 -0.1151865155 8.004074308e-23)
(-0.1620570289 -0.144259922 -2.419719584e-22)
(-0.1327061879 -0.1598548383 0)
(-0.09577887258 -0.1563112663 0)
(-0.05601632505 -0.1302980909 0)
(-0.02147858912 -0.08381134054 0)
(-0.001500384431 -0.02665515985 5.572060317e-22)
(-0.0002873900733 0.04016076836 0)
(-0.01169359545 0.09543609378 -3.492990122e-22)
(-0.02924438056 0.1294073343 8.932747134e-22)
(-0.05060946853 0.1469298858 3.617153623e-22)
(-0.07370082011 0.1519748373 0)
(-0.09745150314 0.1472757699 -3.862529457e-22)
(-0.1211069742 0.1344191743 -3.1744138e-23)
(-0.1440324681 0.1141393179 3.33309137e-22)
(-0.1655143125 0.08670005945 1.769468103e-22)
(-0.1846248406 0.05229123553 -4.060138311e-23)
(-0.2001325692 0.01141716942 1.656821037e-23)
(-0.2104622321 -0.03471422774 -8.265211354e-24)
(-0.2137208406 -0.08376561704 3.371845964e-22)
(-0.2078215378 -0.1318756116 0)
(-0.190823842 -0.1732755876 2.420888597e-22)
(-0.1616335634 -0.2002593123 5.774692858e-24)
(-0.1211662606 -0.2040121451 -5.86081061e-24)
(-0.0738498924 -0.1772119744 1.54841957e-22)
(-0.02971786578 -0.1188642189 -5.435372189e-24)
(-0.002179544907 -0.04005398293 0)
(-0.0002117201297 0.04671639098 0)
(-0.01125001108 0.1105497907 0)
(-0.02815624439 0.1497354709 -5.022731902e-22)
(-0.04874479208 0.1701517281 -1.88098995e-23)
(-0.0710008645 0.1766256836 2.038370264e-23)
(-0.09399451234 0.1724526241 -2.014302861e-23)
(-0.1171434269 0.1594870776 -2.316875027e-23)
(-0.1400179472 0.138480494 -3.029811156e-22)
(-0.1621328858 0.1095160647 6.698610868e-23)
(-0.1827959004 0.07245187025 4.5131622e-23)
(-0.2009835523 0.02734929596 -4.57770539e-23)
(-0.2152270228 -0.02508696397 0)
(-0.2235562172 -0.08298349482 -7.839624704e-23)
(-0.223463215 -0.1427257102 0)
(-0.2120679378 -0.1981820622 -3.739549021e-22)
(-0.186743449 -0.240077342 5.244927884e-22)
(-0.1464438247 -0.256077314 0)
(-0.09394567278 -0.2331209268 -1.493966547e-22)
(-0.04022000755 -0.1639613496 1.937522525e-22)
(-0.003201100001 -0.05861062559 -3.411502136e-22)
(-0.0002015412122 0.05297584236 0)
(-0.0106726201 0.1248172176 9.182842e-22)
(-0.02628446912 0.1687424292 -2.44067732e-23)
(-0.04501108116 0.1916454822 9.193313786e-22)
(-0.06494597855 0.1992920746 -2.512078745e-23)
(-0.08536628944 0.1956104051 2.838836161e-23)
(-0.1059305697 0.1827886637 -2.812922295e-23)
(-0.1264924243 0.1616583373 -1.660913813e-23)
(-0.1468996911 0.1321762238 -5.260216547e-22)
(-0.1668458228 0.09389646726 -8.906607756e-24)
(-0.1857303098 0.04640577037 9.66017611e-24)
(-0.2024781759 -0.01023783463 3.313072053e-22)
(-0.215415468 -0.0749981861 -5.820728254e-22)
(-0.2220209768 -0.1450311631 0)
(-0.2188032136 -0.2146760383 8.887298991e-22)
(-0.2016257533 -0.2740016168 -4.940862104e-22)
(-0.1668639181 -0.3075811695 -1.572215101e-23)
(-0.1140220072 -0.2953811669 0)
(-0.05288481842 -0.2195802397 -1.890156693e-22)
(-0.004749187901 -0.08377277243 3.360560392e-22)
(-0.0003641989155 0.05902317003 1.551006195e-23)
(-0.01049574191 0.1379881307 -8.764170896e-22)
(-0.02441390026 0.1856803832 -1.157056491e-21)
(-0.04026725136 0.2101384451 -8.628964246e-22)
(-0.05630730501 0.218234862 0)
(-0.07214857608 0.2146190019 3.513797894e-23)
(-0.08779222839 0.2018791766 -7.29485158e-23)
(-0.1034562929 0.1810005492 5.867873106e-23)
(-0.1193984026 0.1518997196 3.021360514e-22)
(-0.1357931712 0.113915059 -1.128193749e-23)
(-0.1526082494 0.0662142573 0)
(-0.169452155 0.008177215707 -3.603923527e-22)
(-0.1852760765 -0.06015986132 7.515656895e-22)
(-0.1980448668 -0.1372746831 8.831691255e-22)
(-0.2043546386 -0.2189261687 -5.296615093e-22)
(-0.1990977699 -0.2959712694 5.162677365e-22)
(-0.1760605377 -0.3514072357 1.078224894e-23)
(-0.1300890644 -0.3584150556 -1.095539805e-23)
(-0.06688803252 -0.2843276326 -8.215597088e-23)
(-0.007083319746 -0.1169964337 0)
(-0.000909578076 0.0654004094 -1.911482785e-23)
(-0.0116759206 0.1502816245 -1.326963032e-21)
(-0.02388882771 0.2000659323 1.094235037e-21)
(-0.03601341473 0.2244216698 6.734917514e-22)
(-0.04657310102 0.2316587983 6.014620899e-22)
(-0.05577040126 0.2272393473 6.643945498e-22)
(-0.06411247598 0.2141774711 -4.45867032e-23)
(-0.07227563686 0.1936494284 -3.461332113e-22)
(-0.08096975148 0.1656028287 2.152159472e-22)
(-0.0908719463 0.1292707386 0)
(-0.102554769 0.08353083271 0)
(-0.1163622393 0.0272001188 2.655393821e-22)
(-0.1321589788 -0.0406200463 8.194327213e-23)
(-0.1489252528 -0.1200128156 -2.821618031e-22)
(-0.1641284463 -0.2089300529 -5.411263966e-23)
(-0.1727877763 -0.3006992334 1.301951284e-22)
(-0.1670311401 -0.3793328916 -3.400491169e-22)
(-0.1365292487 -0.4136451777 -1.593979684e-23)
(-0.08018250245 -0.3538326033 8.204369383e-23)
(-0.01050762288 -0.1594130486 -6.032188247e-22)
(-0.002260498918 0.073488831 0)
(-0.01580356064 0.1626521645 2.145870712e-21)
(-0.02665043453 0.2117904547 0)
(-0.03422340951 0.2333947049 -1.351805509e-21)
(-0.03759400264 0.2377766606 6.18405172e-23)
(-0.03799687375 0.2312553333 -6.19308384e-22)
(-0.03668268303 0.2171898869 -4.756277003e-22)
(-0.03489038943 0.1968934413 8.301242864e-22)
(-0.03378840647 0.1703342365 -1.885695424e-22)
(-0.03449879231 0.1367221112 0)
(-0.03811575498 0.09479674424 0)
(-0.04564995147 0.04304287677 2.410617276e-23)
(-0.05790806899 -0.02013779983 -6.007191566e-22)
(-0.0751460096 -0.09620648934 -4.309561612e-22)
(-0.09645177138 -0.1855556047 4.63785647e-22)
(-0.1183462795 -0.2853567646 -6.488721916e-22)
(-0.1332715514 -0.3838386402 9.119935636e-23)
(-0.1265351066 -0.4504358574 2.937473106e-23)
(-0.08899154353 -0.4198536237 5.66045772e-22)
(-0.01526917947 -0.2111719655 6.020820935e-22)
(-0.005180899959 0.08598045748 0)
(-0.02525551129 0.1766291108 1.465579663e-22)
(-0.03483408922 0.2205961416 -4.917136387e-23)
(-0.03640015351 0.2354859179 7.642917095e-22)
(-0.03018485019 0.2343406579 -7.005365476e-22)
(-0.01916581813 0.224160373 4.746473068e-23)
(-0.005615176749 0.208352573 -1.018608206e-22)
(0.008569579512 0.1881241023 -3.389883742e-22)
(0.0217988325 0.1633911257 2.062820131e-22)
(0.03262778565 0.1333242766 0)
(0.03958455742 0.09664086888 0)
(0.04117010598 0.05174057383 -2.902664574e-22)
(0.03578481345 -0.003255387491 0)
(0.02198182423 -0.07058359813 -5.512181024e-22)
(-0.001264866043 -0.1525735412 -1.492375206e-23)
(-0.03310471565 -0.2505949761 2.559732698e-23)
(-0.06909237164 -0.3599341432 2.203129134e-22)
(-0.09227827885 -0.4575424444 4.788174526e-24)
(-0.0871809028 -0.4698129322 -5.78942707e-22)
(-0.02103127185 -0.2698972236 0)
(-0.01111631574 0.1085974972 0)
(-0.04248902207 0.1947151636 -8.848466672e-22)
(-0.04795529755 0.2258195427 -5.411032358e-22)
(-0.03919537302 0.2282135443 4.543809269e-22)
(-0.01877832153 0.2182328013 -1.709982478e-24)
(0.007664291017 0.2028220243 -4.561041522e-23)
(0.03667990805 0.1847619684 5.696672611e-22)
(0.06582995815 0.1647118164 -2.766886619e-23)
(0.09327128066 0.1423128167 -2.069779009e-22)
(0.117389133 0.1166274964 3.142209707e-23)
(0.1365461424 0.08641144433 -3.425913362e-23)
(0.1489669024 0.05017669763 -3.690590357e-23)
(0.1525275562 0.006159175068 3.205630152e-22)
(0.144936684 -0.04796126239 6.119599423e-22)
(0.1235159625 -0.115305284 -5.101164742e-22)
(0.08633532055 -0.2004195594 -1.616052e-22)
(0.03199088082 -0.3067806547 1.531314328e-22)
(-0.02362124021 -0.42398371 7.293661484e-23)
(-0.06492413403 -0.4871612738 1.913292931e-21)
(-0.02509971751 -0.3291544704 2.954992955e-21)
(-0.02004680462 0.1460727412 -4.39020366e-23)
(-0.06416406406 0.2112955848 4.417376385e-23)
(-0.05070231064 0.2177300443 1.000187322e-21)
(-0.01934098248 0.2014679925 -8.270522435e-24)
(0.0241446361 0.1809076109 0)
(0.07154120327 0.1606933279 4.363714302e-23)
(0.11907032 0.1416495438 -2.273848031e-22)
(0.1644767105 0.1233181787 -9.027941568e-23)
(0.2062250923 0.1048117284 3.680728735e-23)
(0.2429642791 0.08507140227 -1.7016531e-23)
(0.2732207361 0.06296148014 3.429966666e-23)
(0.2952535913 0.03726294289 -6.592673659e-23)
(0.3066970889 0.006535073387 -9.3038985e-23)
(0.3049738168 -0.03087769544 1.517041897e-22)
(0.2863936131 -0.07786290551 0)
(0.2470567989 -0.139930034 1.505604234e-22)
(0.1810922158 -0.2266299739 2.56001474e-22)
(0.09604449661 -0.344389493 0)
(-0.006697618868 -0.4552210199 -3.675637e-21)
(-0.0192240825 -0.377753757 -2.892622379e-21)
(-0.02591951298 0.2276828808 -9.514201752e-22)
(-0.03998324581 0.2238216532 -1.388975317e-22)
(0.03656136831 0.1810585351 -2.33557878e-22)
(0.1090503018 0.1451059072 -1.193740398e-22)
(0.1817191137 0.1172445467 -4.295818907e-23)
(0.2490090643 0.09627907335 9.783159139e-23)
(0.3100336583 0.08002510168 -1.408589206e-22)
(0.3646209191 0.06656815177 1.297173053e-22)
(0.412625234 0.05449178845 -8.620107309e-23)
(0.4536250145 0.04270894992 1.132190836e-25)
(0.4867878578 0.03032298577 1.527739888e-23)
(0.5107451236 0.01652902075 7.997195781e-23)
(0.523659735 0.0005365166069 -1.811121668e-22)
(0.5231797932 -0.01863373035 -1.617144045e-22)
(0.5052323359 -0.04286478784 -4.262939051e-23)
(0.4658715038 -0.07633231077 0)
(0.3952696465 -0.1286089381 -1.846481546e-22)
(0.2916071023 -0.2208468097 8.14876761e-22)
(0.119745509 -0.3525016901 1.631602267e-21)
(0.02670547221 -0.3775497977 2.172656252e-21)
(0.2142894472 0.1347447209 9.864986403e-22)
(0.2776311196 0.09870503581 0)
(0.4316592301 0.05810414843 -2.594318182e-22)
(0.5304749351 0.03846264952 -1.741663838e-22)
(0.6016965744 0.02623419098 0)
(0.6571198936 0.01831923453 -6.009077647e-23)
(0.7015213564 0.0131360083 6.377986927e-23)
(0.7376042449 0.009542126291 -1.800152773e-23)
(0.7669368359 0.006804463694 2.885968575e-23)
(0.7902106627 0.004464744113 2.315029422e-23)
(0.8074554957 0.002221320162 0)
(0.8182621311 -0.0001500746135 -2.873029258e-23)
(0.8216499684 -0.002723847912 0)
(0.8162394178 -0.00571266837 2.738143541e-23)
(0.799133314 -0.009611382664 1.421684468e-23)
(0.7679986344 -0.01500255102 -5.799411239e-23)
(0.7106555756 -0.02502519963 -2.535663364e-22)
(0.6235183981 -0.04204285418 -6.91810503e-22)
(0.423009102 -0.09182968092 0)
(0.2705674689 -0.1524021842 -2.119484108e-21)
)


// ************************************************************************* //
