/*--------------------------------*- C++ -*----------------------------------*\
  =========                 |
  \\      /  F ield         | OpenFOAM: The Open Source CFD Toolbox
   \\    /   O peration     | Website:  https://openfoam.org
    \\  /    A nd           | Version:  13
     \\/     M anipulation  |
\*---------------------------------------------------------------------------*/
FoamFile
{
    format      ascii;
    class       scalarField;
    location    "29";
    object      p_all;
}
// * * * * * * * * * * * * * * * * * * * * * * * * * * * * * * * * * * * * * //


400
(
-2.799136215e-09
-0.0005170062033
-0.0011441457
-0.001624570256
-0.00184019341
-0.001742943517
-0.001309929648
-0.0005319267601
0.0005806028197
0.001983134906
0.003582686722
0.005231720645
0.006738616533
0.007898159879
0.008540182683
0.008584570419
0.00808400605
0.007238478391
0.006371263442
0.005825915377
0.0005234787413
-1.13422681e-05
-0.0005629282651
-0.0009453026862
-0.001103948963
-0.00101279037
-0.0006523360844
-9.365004712e-06
0.0009147521055
0.002090001261
0.003443509338
0.004852749123
0.006152548745
0.007162296041
0.007730006011
0.007782860812
0.007364700155
0.006641616236
0.005868423506
0.005313096335
0.001175103836
0.000503682391
-7.918867867e-05
-0.0004288002066
-0.0005728048798
-0.0005186637321
-0.0002529147707
0.0002448619656
0.000988769749
0.00196967052
0.003137634579
0.004390774502
0.005578211379
0.006523686382
0.007069279573
0.007128241819
0.006724584094
0.005993311566
0.005136010731
0.004411783385
0.001639799413
0.0007732868686
7.708967832e-05
-0.0003145788194
-0.0005033571332
-0.0005290364028
-0.0003822199042
-3.094618625e-05
0.0005602494426
0.001408282987
0.002487692211
0.00371232271
0.004931635315
0.005950905046
0.006577113001
0.006680917842
0.006248721655
0.005388713473
0.004285129166
0.003263186818
0.001669762056
0.0006051467027
-0.0002304044537
-0.0007066504644
-0.0009882459885
-0.001140059067
-0.001151003479
-0.0009716876347
-0.0005387113878
0.0001979054526
0.001243457383
0.00253115245
0.003907498381
0.005146322949
0.005995037261
0.00624938514
0.005828426349
0.00480157869
0.003355977734
0.001941459463
0.001060355847
-0.0001818789508
-0.001159012601
-0.001748133796
-0.002167621371
-0.00249977486
-0.002725730997
-0.002772551123
-0.002541264306
-0.001938518854
-0.0009154572833
0.0004949506406
0.002144278054
0.003771946605
0.005043898458
0.005640169218
0.005363433686
0.004207252759
0.00235982605
0.0004549809269
-0.0003612536608
-0.001750268718
-0.002863241133
-0.003590917809
-0.00419757068
-0.004777155682
-0.005298905246
-0.005661559921
-0.005722628764
-0.005331617868
-0.004374637091
-0.002829644501
-0.0008110826275
0.001396715655
0.003363197452
0.004603791243
0.004729385671
0.003581204219
0.001310960488
-0.001195556507
-0.002729994018
-0.004228743546
-0.005468164909
-0.006359893003
-0.007207836635
-0.008114955072
-0.009037985144
-0.009845606872
-0.01034546613
-0.0103153544
-0.00955102074
-0.007932606212
-0.005501011372
-0.002527564434
0.0004660217538
0.002783771299
0.003741600685
0.002894568105
0.000257277631
-0.002964487207
-0.006131702909
-0.00769845079
-0.009049820347
-0.01012549022
-0.01126543896
-0.01258337957
-0.01402773105
-0.01543999526
-0.01657562662
-0.01712831785
-0.01677555202
-0.01525418257
-0.01246698436
-0.008604514169
-0.004235959727
-0.0002894552066
0.002139356237
0.002116493149
-0.0006835545838
-0.004700661244
-0.01059362032
-0.01218232205
-0.01361908981
-0.01487799714
-0.01633702295
-0.01812853688
-0.02020229338
-0.02238086656
-0.02437120978
-0.02577738141
-0.02613718384
-0.02499936555
-0.02205571596
-0.01731621435
-0.01129933867
-0.00512392936
-0.000386107872
0.001232667586
-0.001274897585
-0.006061287723
-0.01608382597
-0.01764293862
-0.0191127317
-0.02050723531
-0.02225557489
-0.02452540044
-0.02728268718
-0.03034349344
-0.03337559715
-0.03589700341
-0.03729780079
-0.03690846884
-0.03414776298
-0.02873099677
-0.02097635319
-0.01205773832
-0.004066593968
0.0003143223448
-0.001083977802
-0.006380934356
-0.02252888453
-0.02399600032
-0.02539745552
-0.02679481627
-0.02870307206
-0.03135395314
-0.03474796484
-0.0387071464
-0.04287071818
-0.04668064215
-0.04938698398
-0.05010063257
-0.04791869475
-0.04218599898
-0.03284901313
-0.02090792517
-0.008786956773
-0.0003090749039
0.000652750354
-0.004474557401
-0.02986169791
-0.03114583172
-0.03228964718
-0.0334225178
-0.03521788301
-0.03801522123
-0.04186642829
-0.04660463787
-0.05184401129
-0.05695811219
-0.06107021952
-0.06308531686
-0.06179888037
-0.05613542397
-0.04554440896
-0.03059094241
-0.01370318173
0.0002562117775
0.005267987352
0.001646301265
-0.03812208703
-0.03904899977
-0.03958650371
-0.03999244644
-0.04122776112
-0.04379318764
-0.04779598467
-0.05306727776
-0.05918208336
-0.06543917986
-0.07084186978
-0.07411193401
-0.07377400447
-0.0683581737
-0.05677691374
-0.03896309504
-0.016933884
0.003820975288
0.01501021401
0.01513421799
-0.04765906559
-0.04781669042
-0.0470999184
-0.04605020529
-0.04610398173
-0.04795640461
-0.05173751189
-0.05723209966
-0.06393579552
-0.07104364558
-0.07742571394
-0.08162712435
-0.08193039979
-0.07652357888
-0.06383031612
-0.04309836835
-0.01558452771
0.01327211062
0.03329453601
0.04052700717
-0.05947769123
-0.05788372181
-0.05470213787
-0.05112275201
-0.04924737401
-0.0498946617
-0.05311057479
-0.05854788433
-0.06555485156
-0.07317247289
-0.08010216535
-0.08469338493
-0.0849871092
-0.07885746309
-0.0643064363
-0.03996806375
-0.006188391434
0.03237797611
0.06453355047
0.08328874083
-0.07582725528
-0.07032449931
-0.062365435
-0.05475812717
-0.05018414341
-0.04924115761
-0.05167525788
-0.05687936878
-0.06397217621
-0.07178108789
-0.07879751811
-0.0831439292
-0.08259350231
-0.07467755506
-0.05695714964
-0.02747149497
0.01437209556
0.06532983596
0.1142470102
0.1500280718
-0.1038439258
-0.08766428944
-0.06982129938
-0.05619237398
-0.04830353143
-0.04563101765
-0.04729814915
-0.05228432773
-0.0593886302
-0.06718879234
-0.07395679099
-0.07758400727
-0.07556792371
-0.06504051533
-0.04296852154
-0.006487028376
0.04639355563
0.1150090248
0.1912247915
0.258022504
-0.1757170777
-0.1146760428
-0.07353926756
-0.05190070518
-0.04120100893
-0.03751660102
-0.03908670728
-0.04438321007
-0.051834546
-0.05980836507
-0.06644600927
-0.06948790829
-0.06624025603
-0.05349539662
-0.02750498911
0.0160940081
0.08231155
0.1769424497
0.3049778536
0.4523707233
-0.3555899762
-0.1550459889
-0.07033544784
-0.04277734404
-0.03136156942
-0.02754804357
-0.02960761702
-0.03565494826
-0.04378244678
-0.05222018689
-0.05907727487
-0.06209641026
-0.05854001051
-0.04505948888
-0.017321401
0.03058132247
0.1080980815
0.2330040538
0.4344588143
0.7355545726
)


// ************************************************************************* //
