/*--------------------------------*- C++ -*----------------------------------*\
  =========                 |
  \\      /  F ield         | OpenFOAM: The Open Source CFD Toolbox
   \\    /   O peration     | Website:  https://openfoam.org
    \\  /    A nd           | Version:  13
     \\/     M anipulation  |
\*---------------------------------------------------------------------------*/
FoamFile
{
    format      ascii;
    class       volVectorField;
    location    "29";
    object      U;
}
// * * * * * * * * * * * * * * * * * * * * * * * * * * * * * * * * * * * * * //

dimensions      [0 1 -1 0 0 0 0];

internalField   nonuniform List<vector> 
400
(
(0.0001753357736 -0.0001789974663 0)
(-0.0001471936003 3.573661343e-05 0)
(-0.001524390221 0.0002699873092 0)
(-0.003740534881 0.0004190086 0)
(-0.006454569028 0.0004974441113 0)
(-0.009369803484 0.0005265156611 0)
(-0.01224036139 0.0005160187723 0)
(-0.0148374457 0.0004652072808 0)
(-0.01692635887 0.0003677705027 0)
(-0.01826679988 0.0002186993312 0)
(-0.0186388997 2.131033371e-05 0)
(-0.01789088288 -0.0002073780383 0)
(-0.01599679521 -0.0004342686662 0)
(-0.01310639984 -0.0006139497237 0)
(-0.009565710141 -0.000698846315 0)
(-0.005888227374 -0.000654424917 0)
(-0.002667891802 -0.0004738898408 0)
(-0.0004386361179 -0.0001865128162 0)
(0.0005130324959 0.0001283132852 0)
(0.0003012205846 0.0002943833827 0)
(-5.171578974e-05 0.000145847587 0)
(-0.002045993356 0.00190691087 0)
(-0.00632197617 0.003699588948 0)
(-0.01235690403 0.004937871765 0)
(-0.01940959647 0.0055880949 0)
(-0.02682075214 0.005725394874 0)
(-0.0339967971 0.005400662719 0)
(-0.04036831015 0.00462172075 0)
(-0.04536893324 0.003380010831 0)
(-0.04845318003 0.001694508123 0)
(-0.0491577934 -0.0003452859621 0)
(-0.04719623635 -0.002551232161 0)
(-0.04256478631 -0.004634691037 0)
(-0.03562867463 -0.006241365449 0)
(-0.02715141383 -0.00702505412 0)
(-0.01823389502 -0.00675011726 0)
(-0.01014196887 -0.005396124991 0)
(-0.004029951171 -0.003233418471 0)
(-0.0005982442698 -0.0008769952128 0)
(0.0002116814152 0.0005615452851 0)
(-0.0003509741328 0.001697796295 0)
(-0.004395446011 0.006354623221 0)
(-0.01163347231 0.01048135458 0)
(-0.02116834217 0.01327080128 0)
(-0.0319306048 0.01467517899 0)
(-0.04302516965 0.01482007594 0)
(-0.05363017814 0.01379540676 0)
(-0.06294716552 0.01162560315 0)
(-0.07019170777 0.008324785662 0)
(-0.07462732594 0.003984337965 0)
(-0.07564478233 -0.00114424088 0)
(-0.07287473288 -0.006599064726 0)
(-0.06631134495 -0.01171194279 0)
(-0.05641688911 -0.01568383639 0)
(-0.04416914952 -0.01773827552 0)
(-0.03100858867 -0.01733814806 0)
(-0.01864549673 -0.01441759815 0)
(-0.008724082282 -0.009555563655 0)
(-0.002417508763 -0.004052038241 0)
(2.681087038e-05 -1.435846862e-05 0)
(-0.0006218196265 0.004512433941 0)
(-0.006660260002 0.01341215494 0)
(-0.01673870931 0.02051828768 0)
(-0.02951942466 0.02513662674 0)
(-0.04360240188 0.0273296458 0)
(-0.05791550388 0.02731255144 0)
(-0.0714937606 0.02522505215 0)
(-0.08340003307 0.02111532941 0)
(-0.09271419286 0.0150342405 0)
(-0.09856934305 0.007169867425 0)
(-0.1002324849 -0.002029550394 0)
(-0.09721976626 -0.01178175258 0)
(-0.08943153184 -0.02097333876 0)
(-0.07728589542 -0.02826755872 0)
(-0.06181553891 -0.03233287796 0)
(-0.04467314487 -0.03218804199 0)
(-0.02797337004 -0.0276025385 0)
(-0.01393394392 -0.01942286085 0)
(-0.004399244184 -0.009687259515 0)
(-0.0001322654165 -0.001552071514 0)
(-0.0008551199544 0.008476455409 0)
(-0.00868946086 0.02286068896 0)
(-0.02135289585 0.03349458611 0)
(-0.03707432709 0.04011620348 0)
(-0.0541429662 0.04306683151 0)
(-0.07135319225 0.04272517259 0)
(-0.08766131794 0.0393064801 0)
(-0.1020618545 0.03288765936 0)
(-0.1135584673 0.02355179843 0)
(-0.1211854743 0.01157213191 0)
(-0.1240742906 -0.002423082353 0)
(-0.121560054 -0.0173448309 0)
(-0.1133281322 -0.03162400367 0)
(-0.09959278972 -0.04332327081 0)
(-0.08127838977 -0.05041492574 0)
(-0.06013935706 -0.05125552331 0)
(-0.0387026727 -0.04520674506 0)
(-0.01992685411 -0.03321535152 0)
(-0.006613805966 -0.01805847017 0)
(-0.0002776322544 -0.004106389922 0)
(-0.001048155748 0.01343676547 0)
(-0.01041074509 0.03441320764 0)
(-0.0253017384 0.04907645012 0)
(-0.04357489399 0.05786434508 0)
(-0.06325778281 0.06156623534 0)
(-0.08305770688 0.06081365676 0)
(-0.1019085267 0.05593312538 0)
(-0.1187964352 0.04703169507 0)
(-0.1326992861 0.03420037943 0)
(-0.1425777561 0.01775000427 0)
(-0.1474134846 -0.00157691774 0)
(-0.1462949132 -0.0224495714 0)
(-0.1385705369 -0.04288370537 0)
(-0.1240790284 -0.06030295478 0)
(-0.1034385113 -0.0718211062 0)
(-0.07833717 -0.07482516537 0)
(-0.05166622429 -0.06786957063 0)
(-0.02728940506 -0.05166970766 0)
(-0.009342889452 -0.02968853094 0)
(-0.0004516457371 -0.007825863173 0)
(-0.00119430765 0.01921302433 0)
(-0.01175662798 0.04770857806 0)
(-0.02842120799 0.06684219508 0)
(-0.04875005452 0.07796502923 0)
(-0.07057514193 0.08246581432 0)
(-0.09256614326 0.081320047 0)
(-0.1136876486 0.07500609825 0)
(-0.1329751543 0.06366017522 0)
(-0.1494347863 0.04734238321 0)
(-0.1619928121 0.02632570964 0)
(-0.1694897503 0.001360555095 0)
(-0.1707383086 -0.02610274675 0)
(-0.164662228 -0.05375961676 0)
(-0.1505581435 -0.0784105737 0)
(-0.1285000577 -0.09616908762 0)
(-0.09983617336 -0.1030864854 0)
(-0.06762328899 -0.09633356569 0)
(-0.03668889212 -0.07580451809 0)
(-0.01294801626 -0.04542611228 0)
(-0.0007051808214 -0.01303788546 0)
(-0.001285512182 0.0255896413 0)
(-0.01265965711 0.06230363362 0)
(-0.03054703322 0.08625888537 0)
(-0.0523080375 0.09987390185 0)
(-0.07564846375 0.1052632009 0)
(-0.0992474251 0.1038338572 0)
(-0.1221502375 0.09626122522 0)
(-0.1435005225 0.08271280074 0)
(-0.1623981868 0.06317532198 0)
(-0.177801865 0.03779494896 0)
(-0.1884726197 0.007196208613 0)
(-0.1929788064 -0.02721968994 0)
(-0.18979715 -0.06299501275 0)
(-0.1775695032 -0.09641974325 0)
(-0.1555754166 -0.1225588946 0)
(-0.1244361023 -0.1357845997 0)
(-0.08694880318 -0.1311558666 0)
(-0.04871304691 -0.1067849675 0)
(-0.01782633018 -0.06644464581 0)
(-0.001100772343 -0.02027398551 0)
(-0.001317106631 0.03231785786 0)
(-0.01307359828 0.077678817 0)
(-0.03154964799 0.1066786169 0)
(-0.05398560613 0.1228897948 0)
(-0.078022784 0.1292530028 0)
(-0.1023898532 0.1276913953 0)
(-0.1262582732 0.1191304221 0)
(-0.1489398667 0.1037829235 0)
(-0.1697072124 0.08153139701 0)
(-0.1876510186 0.05231312403 0)
(-0.2015694344 0.01648777382 0)
(-0.2099054961 -0.02478721558 0)
(-0.2107735952 -0.06914749236 0)
(-0.2021474053 -0.1126180516 0)
(-0.1823181484 -0.1493488037 0)
(-0.1507348437 -0.1718472625 0)
(-0.1092663419 -0.1722992641 0)
(-0.0636829175 -0.1456480063 0)
(-0.0243824398 -0.09416762089 0)
(-0.001720885063 -0.03028438315 0)
(-0.00129510956 0.03913612996 0)
(-0.01301141632 0.0932677411 0)
(-0.03140073629 0.1273554162 0)
(-0.05364190086 0.1461465382 0)
(-0.07735878097 0.1534883307 0)
(-0.1013634792 0.1519052008 0)
(-0.1249954783 0.1426378925 0)
(-0.1477941545 0.1259790054 0)
(-0.1692910617 0.1017030353 0)
(-0.1888322901 0.06948686526 0)
(-0.2054189537 0.02931103624 0)
(-0.2175704343 -0.01810938838 0)
(-0.2232464186 -0.07080027742 0)
(-0.2198936672 -0.1249117863 0)
(-0.2047712822 -0.1740652543 0)
(-0.1757769778 -0.2090433562 0)
(-0.1330297761 -0.2186055087 0)
(-0.08137585576 -0.1928335243 0)
(-0.03297445254 -0.1300840904 0)
(-0.002679025092 -0.04404771529 0)
(-0.001246156118 0.04581610199 0)
(-0.01259695978 0.1085227211 0)
(-0.03026218527 0.1474946638 0)
(-0.05138151593 0.1686364445 0)
(-0.07359405382 0.1767808399 0)
(-0.09583356888 0.1751450807 0)
(-0.1176535218 0.1653627787 0)
(-0.1388787109 0.1478632516 0)
(-0.1593820393 0.1223449838 0)
(-0.178889373 0.08822137946 0)
(-0.1967889987 0.04503395318 0)
(-0.2119278246 -0.007099395374 0)
(-0.2224247601 -0.06690876005 0)
(-0.2255190438 -0.1311497225 0)
(-0.2176351517 -0.1935721537 0)
(-0.194979425 -0.2438410031 0)
(-0.1551666529 -0.2672791283 0)
(-0.1006429498 -0.2475196567 0)
(-0.04378697271 -0.1753884686 0)
(-0.004130020735 -0.06276306673 0)
(-0.001231196413 0.05224269729 0)
(-0.01213027491 0.1230244241 0)
(-0.0285872967 0.1663393704 0)
(-0.04768258576 0.1892688508 0)
(-0.06710154871 0.1977461894 0)
(-0.08596735526 0.1957849779 0)
(-0.1041148536 0.1854930232 0)
(-0.121714161 0.1675054585 0)
(-0.1390453953 0.1415067367 0)
(-0.1563087249 0.1066954266 0)
(-0.1734307796 0.06218639123 0)
(-0.1898385714 0.007428811738 0)
(-0.2041564416 -0.05723426461 0)
(-0.2138735985 -0.1296685527 0)
(-0.2150773112 -0.204592787 0)
(-0.2025447714 -0.2716649373 0)
(-0.1710039953 -0.3136252711 0)
(-0.1190078897 -0.3068720533 0)
(-0.05658126876 -0.2303660497 0)
(-0.006272621854 -0.08779204104 0)
(-0.001367428528 0.0585417106 0)
(-0.01217292091 0.1366377169 0)
(-0.02722383503 0.1832815972 0)
(-0.04349449111 0.20694651 0)
(-0.05878223575 0.2148786031 0)
(-0.07254041311 0.2120029252 0)
(-0.08500067861 0.200963247 0)
(-0.09674867781 0.1826546163 0)
(-0.1085132255 0.1568151206 0)
(-0.1210090981 0.1225121275 0)
(-0.1347757295 0.0785185804 0)
(-0.1499643407 0.02366076266 0)
(-0.1660145777 -0.04271413477 0)
(-0.1811864188 -0.1199441483 0)
(-0.1919453927 -0.2045521968 0)
(-0.1923994736 -0.2876705078 0)
(-0.1746758505 -0.3513270271 0)
(-0.1324515115 -0.3654851772 0)
(-0.07030223687 -0.2934862906 0)
(-0.009331190472 -0.1204748666 0)
(-0.001869103712 0.06527792522 0)
(-0.01366763668 0.1497062213 0)
(-0.02750049284 0.1979616637 0)
(-0.04024311623 0.220612192 0)
(-0.04998868296 0.2266057628 0)
(-0.05679915889 0.2218832269 0)
(-0.06149419493 0.2096212148 0)
(-0.06516242803 0.1909705043 0)
(-0.06899581267 0.165757027 0)
(-0.07419839566 0.1330001006 0)
(-0.08189211276 0.09126148172 0)
(-0.09297030265 0.03890552731 0)
(-0.1078341822 -0.02559848058 0)
(-0.1259200639 -0.1031080844 0)
(-0.1448777709 -0.1925132875 0)
(-0.159334705 -0.2879371757 0)
(-0.159946791 -0.3734213985 0)
(-0.1355523232 -0.4154157835 0)
(-0.08258750538 -0.3603415447 0)
(-0.01346669845 -0.1616629055 0)
(-0.003107163416 0.07374784792 0)
(-0.01808538604 0.1632520394 0)
(-0.03120874454 0.2102699548 0)
(-0.03956226215 0.2291714444 0)
(-0.04202520819 0.2312340102 0)
(-0.03977400218 0.2234275628 0)
(-0.03449590813 0.2093175652 0)
(-0.027880521 0.19019546 0)
(-0.02156919736 0.1659354255 0)
(-0.01717432161 0.1355515787 0)
(-0.01628344391 0.09752459922 0)
(-0.02041486255 0.04998265273 0)
(-0.03087863838 -0.009166208752 0)
(-0.04844010921 -0.08199068736 0)
(-0.07254754777 -0.1697660777 0)
(-0.09969248182 -0.2706629064 0)
(-0.1209877755 -0.3737792389 0)
(-0.1218445807 -0.4470895672 0)
(-0.08925252918 -0.4229705379 0)
(-0.01846702501 -0.2109118644 0)
(-0.005596324652 0.0864741258 0)
(-0.02741032101 0.1790663733 0)
(-0.0400439956 0.2199842079 0)
(-0.0420614181 0.2310308231 0)
(-0.03437863769 0.2265690778 0)
(-0.02013900987 0.2142954557 0)
(-0.00222576594 0.1977598975 0)
(0.01701170002 0.1781179896 0)
(0.03554929513 0.1551542167 0)
(0.05149959071 0.1278597059 0)
(0.06298351652 0.09472976104 0)
(0.06806068823 0.05388367203 0)
(0.06472645559 0.003071210373 0)
(0.05104196139 -0.06038872845 0)
(0.02560828511 -0.1395262931 0)
(-0.01093409228 -0.2366470839 0)
(-0.05249084357 -0.3483810259 0)
(-0.08396145625 -0.450765423 0)
(-0.0838038368 -0.4702867931 0)
(-0.02312772414 -0.2661017268 0)
(-0.009897043383 0.1087694998 0)
(-0.04317908671 0.1994093176 0)
(-0.05269761363 0.2253012349 0)
(-0.04260300209 0.2226233041 0)
(-0.01902597644 0.2087974244 0)
(0.01180767177 0.191048718 0)
(0.04575302323 0.1720553054 0)
(0.07999576598 0.1523574374 0)
(0.1123774228 0.1314158651 0)
(0.1409911951 0.1081342055 0)
(0.1639205985 0.08108596867 0)
(0.17906934 0.04857037018 0)
(0.1840439456 0.008549520909 0)
(0.1761153678 -0.04159648393 0)
(0.1523177975 -0.1055478373 0)
(0.110273183 -0.1885690945 0)
(0.05130983045 -0.2955770098 0)
(-0.01324253451 -0.417359588 0)
(-0.05713173535 -0.4885232686 0)
(-0.0246991049 -0.3236472796 0)
(-0.01778101399 0.1517976 0)
(-0.06135020712 0.2236680073 0)
(-0.05249082028 0.2175246128 0)
(-0.0148316298 0.1946315124 0)
(0.03465882654 0.1706412004 0)
(0.08757279087 0.1486218019 0)
(0.1399617465 0.1289664081 0)
(0.1895653922 0.1110688969 0)
(0.234803918 0.09386977937 0)
(0.2742790866 0.07616696808 0)
(0.3064533691 0.05669959442 0)
(0.3294457192 0.03411300052 0)
(0.3408604917 0.006865488531 0)
(0.3376775972 -0.02704292332 0)
(0.3160630861 -0.07077110639 0)
(0.2714002508 -0.1302361862 0)
(0.1994747376 -0.2163110174 0)
(0.102506278 -0.3382370377 0)
(0.004067762195 -0.4566678964 0)
(-0.01602923368 -0.3691459477 0)
(-0.02417470546 0.2083754183 0)
(-0.03783644613 0.2304680124 0)
(0.03731736721 0.1765499193 0)
(0.1249854914 0.1367568143 0)
(0.2055697879 0.1088767443 0)
(0.2775234585 0.08799157892 0)
(0.3415466886 0.07190249191 0)
(0.39796146 0.05901312532 0)
(0.4468453957 0.04793013777 0)
(0.4879703724 0.03751570811 0)
(0.5206959428 0.02680148225 0)
(0.5437726255 0.01492217872 0)
(0.5552912264 0.0009908399031 0)
(0.5525702472 -0.01607169951 0)
(0.5317638735 -0.03810168157 0)
(0.4873725428 -0.0690273045 0)
(0.4109041359 -0.1190542087 0)
(0.2907111469 -0.2093532958 0)
(0.1330288377 -0.3382958267 0)
(0.03869477655 -0.3403274085 0)
(0.2419139984 0.1091662584 0)
(0.3135546798 0.09716519505 0)
(0.4444628534 0.05698907677 0)
(0.549747142 0.03510166126 0)
(0.624085084 0.02371175931 0)
(0.6794920546 0.01667314954 0)
(0.7232257225 0.01194756804 0)
(0.7584139132 0.008675780938 0)
(0.786627174 0.006257195407 0)
(0.8086742275 0.004253876294 0)
(0.824734616 0.002365005466 0)
(0.8344264095 0.0003823360187 0)
(0.8368715716 -0.001871880373 0)
(0.8306305196 -0.004561075788 0)
(0.8133756387 -0.008011843722 0)
(0.7811917021 -0.01289240948 0)
(0.7257669563 -0.02126156214 0)
(0.6299140327 -0.03812843622 0)
(0.4592769972 -0.0855922076 0)
(0.3048862077 -0.1257040769 0)
)
;

boundaryField
{
    movingWall
    {
        type            fixedValue;
        value           uniform (1 0 0);
    }
    fixedWalls
    {
        type            fixedValue;
        value           uniform (0 0 0);
    }
    frontAndBack
    {
        type            empty;
    }
}


// ************************************************************************* //
