/*--------------------------------*- C++ -*----------------------------------*\
  =========                 |
  \\      /  F ield         | OpenFOAM: The Open Source CFD Toolbox
   \\    /   O peration     | Website:  https://openfoam.org
    \\  /    A nd           | Version:  13
     \\/     M anipulation  |
\*---------------------------------------------------------------------------*/
FoamFile
{
    format      ascii;
    class       volVectorField;
    location    "29";
    object      U;
}
// * * * * * * * * * * * * * * * * * * * * * * * * * * * * * * * * * * * * * //

dimensions      [0 1 -1 0 0 0 0];

internalField   nonuniform List<vector> 
400
(
(1.094612058e-05 -3.787118923e-05 0)
(-0.0006661560425 0.0004130327686 -1.547452146e-23)
(-0.002185379217 0.0009203850468 0)
(-0.004047812274 0.00131276913 0)
(-0.005971826493 0.001535053992 6.839819986e-25)
(-0.007762723171 0.001569836914 4.151833847e-24)
(-0.009284469902 0.00142355294 -7.355695671e-24)
(-0.01043585599 0.001119712737 7.548838173e-24)
(-0.01113672642 0.000696073789 -2.096773118e-25)
(-0.01132702887 0.000203073274 -3.996765514e-24)
(-0.0109717012 -0.0003002317577 5.805873249e-24)
(-0.01007227102 -0.0007475093775 -5.931395167e-23)
(-0.00867983926 -0.00107555335 -6.554558617e-23)
(-0.00690282862 -0.001233036081 -7.786274187e-23)
(-0.004910729697 -0.001192633683 4.574799834e-24)
(-0.002927237706 -0.0009619197833 -4.139173204e-24)
(-0.001205315311 -0.0005912145365 -1.999568815e-22)
(-1.908787029e-05 -0.0001698877453 0)
(0.0005181388331 0.0001720803892 1.513074319e-25)
(0.000222746946 0.000305975241 -2.597991202e-24)
(-0.000263389895 0.0008289082413 1.38602996e-25)
(-0.002703315186 0.003383788757 1.557182473e-23)
(-0.006907234107 0.005604433918 1.549320283e-25)
(-0.0119522199 0.007008131507 -8.483809052e-25)
(-0.01713489004 0.00755370061 1.160427611e-24)
(-0.02197515453 0.007294133522 1.305047712e-23)
(-0.02611052595 0.006321842572 1.406528145e-24)
(-0.02926538842 0.004754158425 -7.30008716e-24)
(-0.03122646042 0.002737135699 1.016155636e-23)
(-0.03184174532 0.0004524100776 4.512443724e-24)
(-0.03102737216 -0.001884118871 -6.32133922e-24)
(-0.02879296102 -0.004022985806 2.96144543e-24)
(-0.02527122462 -0.005708300111 3.896513537e-23)
(-0.0207318389 -0.006707354109 -1.955380851e-24)
(-0.01558956249 -0.006854093395 3.75572866e-24)
(-0.0103851088 -0.006097433399 -9.745220915e-23)
(-0.005730275066 -0.004546174617 9.641945531e-23)
(-0.002233383914 -0.002507424341 -3.968101164e-25)
(-0.0001817925866 -0.000502388287 4.068177399e-25)
(8.343074954e-05 0.0006099133952 0)
(-0.0004188259955 0.002935033739 -2.913402436e-25)
(-0.00464784682 0.008803911525 1.705989581e-23)
(-0.01137186179 0.01324027706 -8.246122139e-24)
(-0.01932710657 0.01579187156 -2.069480356e-25)
(-0.02747384604 0.01652982886 2.033048381e-25)
(-0.03511744188 0.01564426349 7.390865941e-27)
(-0.04171304467 0.01335985802 -1.238469535e-24)
(-0.04683527782 0.009919699266 -4.562774076e-25)
(-0.05014943599 0.00560241177 -1.064020482e-23)
(-0.05141187294 0.0007444482634 0)
(-0.05047751577 -0.004241709992 0)
(-0.04733669611 -0.00888708242 2.671987507e-23)
(-0.04215897711 -0.01268164297 2.813949264e-23)
(-0.03531414502 -0.01513591906 -1.646781951e-24)
(-0.02738980621 -0.0158617741 4.8479554e-23)
(-0.01916996794 -0.01467324767 9.423395988e-23)
(-0.01156086831 -0.01169354828 3.979894118e-23)
(-0.005465406232 -0.00745072783 4.155640146e-25)
(-0.001451107437 -0.002936058258 1.066657998e-25)
(-9.072959827e-05 0.0002258587101 0)
(-0.000502459911 0.006045277245 -4.252683177e-23)
(-0.006402679712 0.01637056995 -1.696207063e-23)
(-0.01553486997 0.02355907746 8.172988706e-24)
(-0.02627885466 0.02744133547 0)
(-0.03728708915 0.02832073324 0)
(-0.04768989542 0.02658746867 0)
(-0.05679607139 0.02263100356 -4.525533686e-26)
(-0.06405322949 0.01683596873 -2.126720978e-24)
(-0.06901018177 0.009622145355 0)
(-0.07130765337 0.00149109787 1.637804157e-24)
(-0.07070794501 -0.006936379644 2.804265813e-25)
(-0.067129862 -0.01493000342 -2.812117691e-25)
(-0.06069860111 -0.0216670575 0)
(-0.05180714033 -0.02631582002 4.135305283e-23)
(-0.04114964678 -0.02816048518 -4.683606531e-23)
(-0.02971952378 -0.02677353883 -2.764112962e-23)
(-0.0187370675 -0.02221518141 -3.965106514e-23)
(-0.009487987802 -0.01521916471 7.795784078e-25)
(-0.002976873622 -0.00729819249 9.785740547e-23)
(-0.0002318801247 -0.0008661859978 0)
(-0.0005316073736 0.01009490324 4.273367031e-23)
(-0.007983509772 0.02595190694 4.779246153e-25)
(-0.01939667412 0.03642843259 -4.670089734e-25)
(-0.03282349006 0.04185476888 0)
(-0.04664642298 0.04289442488 7.776922904e-25)
(-0.05985171005 0.04020036564 -7.669093039e-25)
(-0.07163222996 0.03434712675 3.670397922e-23)
(-0.08132676087 0.02585645884 1.846243921e-23)
(-0.08836522482 0.01527292282 6.23362286e-24)
(-0.09225390962 0.00324620982 -1.639712221e-24)
(-0.09260304461 -0.00940765477 0)
(-0.08917486289 -0.02167450826 4.37373529e-25)
(-0.08195918503 -0.0323671141 1.010068584e-23)
(-0.07126834934 -0.04021213675 -4.351467281e-23)
(-0.05781979636 -0.04402011012 1.934207104e-24)
(-0.04278555336 -0.04294799012 4.221540351e-23)
(-0.02775433407 -0.03683324643 -3.848569605e-25)
(-0.01455054075 -0.02652708268 0)
(-0.004859438037 -0.01408450507 5.436498343e-23)
(-0.0003641462374 -0.002846962245 -2.564595998e-22)
(-0.0005272160784 0.01499911539 9.837543327e-23)
(-0.009377831657 0.03738981952 -4.904681967e-25)
(-0.02288160061 0.05170168306 0)
(-0.03883005795 0.05894122952 0)
(-0.05538604337 0.06025516294 -8.730153018e-23)
(-0.07142811014 0.05661850236 -8.497168094e-23)
(-0.08606577587 0.04880129577 -4.065467618e-23)
(-0.09855001448 0.03743955734 -1.503415204e-23)
(-0.1081936392 0.02315975143 -5.364271116e-24)
(-0.1143435699 0.006709753689 -8.172382657e-24)
(-0.1164037416 -0.01093269409 6.598330307e-24)
(-0.1138929168 -0.02848909272 8.821545031e-24)
(-0.1065479589 -0.04437000913 -1.892279437e-23)
(-0.09446740885 -0.05675283303 4.585846164e-24)
(-0.07826806215 -0.06378248197 0)
(-0.05922858164 -0.0639345019 -1.575112582e-23)
(-0.03933957812 -0.05653780877 -2.358913134e-26)
(-0.02114176178 -0.04235786425 0)
(-0.007318659753 -0.02398219486 -1.520174438e-22)
(-0.0005216121857 -0.005925536694 6.055294263e-22)
(-0.0004990788939 0.02064552848 -9.770533384e-23)
(-0.01052941614 0.05045385792 2.831571089e-22)
(-0.02582934511 0.06912441614 1.526656283e-22)
(-0.04402099892 0.0784918127 3.618652116e-24)
(-0.0631068551 0.08029402281 -7.319210817e-23)
(-0.08190337648 0.07587978281 9.041497757e-23)
(-0.09947684759 0.06621640629 -3.589584842e-24)
(-0.1150218617 0.05201662905 -1.728842494e-24)
(-0.1277509866 0.03392346032 2.523668841e-24)
(-0.1368463066 0.01270240803 7.380180199e-24)
(-0.1414701103 -0.01058755649 -6.498235392e-24)
(-0.1408239205 -0.03445981031 -9.782459416e-24)
(-0.1342737737 -0.05692715391 -3.261777738e-23)
(-0.1215443028 -0.07553251853 -3.658029096e-23)
(-0.1029666698 -0.08754194123 5.638934251e-25)
(-0.07976324549 -0.09039147718 0)
(-0.05426651959 -0.08244462634 0)
(-0.02987144153 -0.06397701416 -2.905320174e-24)
(-0.01066279037 -0.03798776669 2.969752893e-24)
(-0.0007350876805 -0.01050086004 1.027861913e-22)
(-0.000447914865 0.0268722407 0)
(-0.01134914841 0.06480693534 2.001959123e-22)
(-0.02801578949 0.08829532498 8.962041315e-23)
(-0.04799822194 0.1001225733 0)
(-0.06920552419 0.1027067663 1.569680323e-22)
(-0.09044310451 0.0978150101 0)
(-0.1107824297 0.08661042526 -1.428271058e-22)
(-0.1294085525 0.06983910751 6.514885757e-24)
(-0.145476282 0.04808215506 0)
(-0.1580342709 0.02201762227 0)
(-0.1660124356 -0.007334149982 -1.3742315e-24)
(-0.1682662746 -0.0383879076 -9.31496592e-25)
(-0.1637056446 -0.06883910608 1.49174322e-22)
(-0.1515201341 -0.09558199272 -4.704634881e-23)
(-0.1315128228 -0.1148290524 -2.560239749e-24)
(-0.104559108 -0.122569554 1.533999015e-24)
(-0.07309314831 -0.1155511162 -1.558196747e-24)
(-0.0413500132 -0.09283065394 0)
(-0.01525222539 -0.05740739544 3.203419508e-24)
(-0.001044301696 -0.01714707401 -1.012812432e-21)
(-0.0003744672155 0.03346273195 0)
(-0.01174999755 0.07998845001 -1.128089576e-22)
(-0.02920691798 0.108638122 -6.190719956e-22)
(-0.05031717065 0.1232223456 -3.755086651e-22)
(-0.07296277411 0.126908689 0)
(-0.09598909015 0.1219246783 4.119220248e-22)
(-0.1185267422 0.1096341708 1.26082141e-22)
(-0.139813963 0.09078199785 -5.581462808e-24)
(-0.1590214261 0.06581372434 5.553837566e-24)
(-0.1751453442 0.03520886124 0)
(-0.186955236 -0.0001964499924 2.911968935e-23)
(-0.1930165158 -0.03889702244 4.69545062e-24)
(-0.1917802748 -0.07843817625 -1.076684584e-22)
(-0.1817867793 -0.1151856883 8.003009078e-23)
(-0.1620564544 -0.144259018 -2.419492442e-22)
(-0.1327057121 -0.1598539325 0)
(-0.09577852009 -0.1563104478 0)
(-0.05601611033 -0.1302974529 0)
(-0.02147850141 -0.08381095613 0)
(-0.001500376019 -0.02665504766 5.571605885e-22)
(-0.0002873942229 0.04016043831 0)
(-0.01169356462 0.0954353132 -3.492801159e-22)
(-0.02924428987 0.1294063027 8.932349455e-22)
(-0.05060930065 0.1469287681 3.616966008e-22)
(-0.07370057086 0.1519737627 0)
(-0.09745117821 0.1472748334 -3.86233259e-22)
(-0.1211065862 0.1344184414 -3.174277438e-23)
(-0.1440320333 0.1141388288 3.332970779e-22)
(-0.1655138475 0.08669983269 1.769405477e-22)
(-0.1846243603 0.05229127216 -4.060000328e-23)
(-0.2001320848 0.01141745642 1.656808884e-23)
(-0.2104617513 -0.03471371465 -8.264827739e-24)
(-0.2137203682 -0.08376491071 3.371715052e-22)
(-0.2078210795 -0.1318747527 0)
(-0.1908234092 -0.1732746276 2.420661345e-22)
(-0.1616331763 -0.2002583184 5.773985738e-24)
(-0.1211659485 -0.2040112067 -5.860092945e-24)
(-0.07384968478 -0.1772112018 1.548184093e-22)
(-0.02971777277 -0.1188637212 -5.43465413e-24)
(-0.002179535569 -0.04005382133 0)
(-0.0002117279243 0.04671605448 0)
(-0.01125001776 0.1105489874 0)
(-0.02815623672 0.1497344021 -5.022533995e-22)
(-0.04874475579 0.1701505664 -1.880924644e-23)
(-0.0710007938 0.176624567 2.038301479e-23)
(-0.09399440955 0.1724516548 -2.014234888e-23)
(-0.1171433003 0.1594863242 -2.316800673e-23)
(-0.1400178078 0.138479996 -3.029701146e-22)
(-0.1621327439 0.1095158367 6.698576416e-23)
(-0.1827957628 0.07245190727 4.51300542e-23)
(-0.2009834199 0.02734957885 -4.577545951e-23)
(-0.2152268906 -0.02508646332 0)
(-0.2235560748 -0.0829828106 -7.839022322e-23)
(-0.2234630507 -0.1427248765 0)
(-0.212067746 -0.1981811171 -3.73941383e-22)
(-0.1867432367 -0.2400763357 5.244673577e-22)
(-0.1464436168 -0.2560763222 0)
(-0.09394550838 -0.2331200624 -1.493738289e-22)
(-0.04021992094 -0.1639607531 1.937285934e-22)
(-0.003201090167 -0.05861041322 -3.411266243e-22)
(-0.0002015517737 0.05297552048 0)
(-0.01067266628 0.1248164363 9.182610077e-22)
(-0.02628455228 0.1687413777 -2.440609112e-23)
(-0.04501119054 0.1916443323 9.193082939e-22)
(-0.06494610627 0.1992909691 -2.512009515e-23)
(-0.08536643346 0.1956094511 2.838761496e-23)
(-0.1059307326 0.1827879322 -2.812848311e-23)
(-0.1264926109 0.1616578664 -1.660873337e-23)
(-0.1468999044 0.1321760229 -5.260091859e-22)
(-0.1668460612 0.09389652346 -8.90639924e-24)
(-0.185730565 0.04640605504 9.659961422e-24)
(-0.2024784337 -0.01023735829 3.313009711e-22)
(-0.2154157049 -0.07499755263 -5.820597691e-22)
(-0.2220211643 -0.1450304041 0)
(-0.2188033283 -0.2146751786 8.887042687e-22)
(-0.2016257838 -0.274000684 -4.940623153e-22)
(-0.1668638751 -0.3075802122 -1.572137731e-23)
(-0.1140219277 -0.2953802816 0)
(-0.05288475496 -0.2195795807 -1.889924069e-22)
(-0.004749178532 -0.0837725154 3.36032857e-22)
(-0.0003642111305 0.0590228848 1.550970361e-23)
(-0.01049582525 0.1379874169 -8.763949797e-22)
(-0.02441407206 0.1856794047 -1.157032362e-21)
(-0.04026750517 0.2101373643 -8.628747496e-22)
(-0.05630763016 0.218233821 0)
(-0.07214896432 0.2146181099 3.513721433e-23)
(-0.08779267416 0.2018785057 -7.294696302e-23)
(-0.1034567921 0.1810001363 5.86775294e-23)
(-0.1193989498 0.1518995689 3.021296091e-22)
(-0.1357937568 0.1139151502 -1.12817263e-23)
(-0.1526088588 0.06621455266 0)
(-0.1694527645 0.008177669348 -3.603854688e-22)
(-0.1852766569 -0.06015929013 7.515531459e-22)
(-0.1980453849 -0.1372740269 8.831555013e-22)
(-0.2043550579 -0.2189254437 -5.296486307e-22)
(-0.1990980613 -0.295970482 5.162557413e-22)
(-0.1760606925 -0.3514064014 1.078151763e-23)
(-0.1300891036 -0.3584142364 -1.095465499e-23)
(-0.06688801133 -0.2843269692 -8.217830397e-23)
(-0.007083312678 -0.1169961478 0)
(-0.000909591175 0.0654001809 -1.911446178e-23)
(-0.0116760352 0.1502810205 -1.326940071e-21)
(-0.0238890763 0.2000650789 1.094212341e-21)
(-0.0360137961 0.2244207112 6.734797244e-22)
(-0.04657360146 0.2316578694 6.014513789e-22)
(-0.05577100437 0.2272385553 6.643828104e-22)
(-0.06411316466 0.2141768875 -4.45859128e-23)
(-0.07227639551 0.19364909 -3.461276814e-22)
(-0.08097056377 0.1656027359 2.15212701e-22)
(-0.09087279329 0.129270867 0)
(-0.1025556307 0.08353113921 0)
(-0.1163630921 0.0272005518 2.655361885e-22)
(-0.1321597956 -0.04061953698 8.194369945e-23)
(-0.1489260018 -0.1200122665 -2.821556775e-22)
(-0.1641290906 -0.2089294783 -5.411187459e-23)
(-0.1727882788 -0.3006986277 1.301954092e-22)
(-0.167031476 -0.3793322415 -3.400376416e-22)
(-0.1365294147 -0.4136445046 -1.595039101e-23)
(-0.08018253784 -0.3538320052 8.20659964e-23)
(-0.01050762078 -0.1594127593 -6.032389868e-22)
(-0.002260512082 0.07348867418 0)
(-0.0158036963 0.162651704 2.145835855e-21)
(-0.02665073795 0.2117897693 0)
(-0.03422388552 0.233393912 -1.351783242e-21)
(-0.03759463536 0.2377758809 6.184094302e-23)
(-0.03799763838 0.2312546667 -6.192973791e-22)
(-0.03668354828 0.2171894008 -4.756203232e-22)
(-0.03489132689 0.1968931777 8.301115436e-22)
(-0.03378938843 0.1703341897 -1.885666857e-22)
(-0.03449978909 0.1367222591 0)
(-0.03811674266 0.09479704438 0)
(-0.04565090791 0.04304327687 2.41063839e-23)
(-0.0579089754 -0.02013735093 -6.007122675e-22)
(-0.07514684446 -0.09620603602 -4.309509676e-22)
(-0.09645250846 -0.1855551653 4.637805985e-22)
(-0.1183468864 -0.2853563334 -6.488605463e-22)
(-0.1332720001 -0.3838381888 9.119745338e-23)
(-0.1265353711 -0.4504353799 2.938594049e-23)
(-0.08899163481 -0.4198531534 5.66054621e-22)
(-0.01526918459 -0.2111717048 6.021022176e-22)
(-0.005180911473 0.08598037916 0)
(-0.02525565069 0.1766288131 1.465583022e-22)
(-0.03483441135 0.220595652 -4.917068013e-23)
(-0.03640067005 0.2354853204 7.642800726e-22)
(-0.03018554623 0.2343400524 -7.005255459e-22)
(-0.01916666422 0.2241598468 4.746402512e-23)
(-0.005616123638 0.2083521887 -1.018597161e-22)
(0.008568566378 0.1881238939 -3.38983415e-22)
(0.02179778599 0.1633910979 2.062794152e-22)
(0.03262675103 0.1333244117 0)
(0.03958356161 0.09664113069 0)
(0.04116917068 0.05174091528 -2.902634681e-22)
(0.03578394603 -0.003255016978 0)
(0.02198103536 -0.07058323407 -5.512132627e-22)
(-0.001265562954 -0.1525732115 -1.492318096e-23)
(-0.03310530232 -0.250594683 2.559677245e-23)
(-0.06909284035 -0.3599338602 2.203034335e-22)
(-0.09227858571 -0.4575421682 4.788730785e-24)
(-0.08718102754 -0.4698126229 -5.789521773e-22)
(-0.02103128485 -0.2698970218 0)
(-0.01111632199 0.1085974907 0)
(-0.04248913628 0.1947150234 -8.848361463e-22)
(-0.04795557986 0.2258192513 -5.410975586e-22)
(-0.03919584362 0.2282131491 4.543754955e-22)
(-0.0187789724 0.2182323773 -1.709996342e-24)
(0.00766348772 0.2028216404 -4.560978758e-23)
(0.03667899749 0.1847616801 5.696591061e-22)
(0.06582898457 0.1647116478 -2.766850872e-23)
(0.09327028753 0.1423127848 -2.069752819e-22)
(0.1173881639 0.1166275906 3.142174012e-23)
(0.136545228 0.08641163937 -3.425878387e-23)
(0.1489660629 0.0501769583 -3.690557435e-23)
(0.1525268079 0.006159462954 3.20560219e-22)
(0.144936032 -0.0479609858 6.119545469e-22)
(0.1235154 -0.1153050471 -5.101114356e-22)
(0.08633485683 -0.2004193731 -1.616014016e-22)
(0.03199047534 -0.3067805104 1.53134982e-22)
(-0.02362153006 -0.4239835646 7.29371156e-23)
(-0.06492425186 -0.4871611085 1.913299749e-21)
(-0.0250997337 -0.3291543412 2.95500067e-21)
(-0.02004680047 0.1460727797 -4.390171179e-23)
(-0.06416411623 0.2112955611 4.417343704e-23)
(-0.05070247869 0.2177299184 1.000177633e-21)
(-0.0193412978 0.2014677789 -8.270164946e-24)
(0.0241441643 0.1809073557 0)
(0.07154058733 0.1606930804 4.363653103e-23)
(0.1190695943 0.1416493452 -2.273815984e-22)
(0.1644759154 0.1233180533 -9.027812014e-23)
(0.206224271 0.1048116902 3.680678515e-23)
(0.2429634747 0.08507144848 -1.701634712e-23)
(0.2732199839 0.0629615964 3.429931649e-23)
(0.2952529203 0.03726310623 -6.592609217e-23)
(0.3066965045 0.006535257119 -9.30382792e-23)
(0.3049733237 -0.03087751796 1.517025905e-22)
(0.2863932116 -0.07786275789 0)
(0.2470564789 -0.1399299317 1.505561816e-22)
(0.1810919566 -0.2266299271 2.560018102e-22)
(0.09604430297 -0.3443894355 0)
(-0.006697717852 -0.4552209586 -3.675648073e-21)
(-0.01922409868 -0.3777537004 -2.892629834e-21)
(-0.02591950119 0.2276829212 -9.51417995e-22)
(-0.03998322521 0.2238216815 -1.388966308e-22)
(0.03656134897 0.181058512 -2.335554717e-22)
(0.1090501958 0.1451058318 -1.193727925e-22)
(0.1817188965 0.1172444372 -4.295765785e-23)
(0.249008729 0.09627895673 9.782992364e-23)
(0.3100332198 0.0800250014 -1.408565686e-22)
(0.3646204059 0.06656808393 1.297153976e-22)
(0.4126246819 0.05449176247 -8.619990261e-23)
(0.4536244619 0.04270896647 1.13218885e-25)
(0.4867873391 0.03032303829 1.527723586e-23)
(0.5107446652 0.01652909772 7.997115812e-23)
(0.5236593565 0.0005365988839 -1.811104052e-22)
(0.5231795043 -0.01863365001 -1.617128015e-22)
(0.5052321233 -0.04286472281 -4.262840236e-23)
(0.4658713539 -0.07633226981 0)
(0.3952695378 -0.1286089251 -1.846502878e-22)
(0.2916070204 -0.2208468058 8.14878893e-22)
(0.1197454595 -0.3525016865 1.631605772e-21)
(0.02670545969 -0.3775497902 2.172657977e-21)
(0.2142894598 0.1347447332 9.864962137e-22)
(0.2776311589 0.09870505196 0)
(0.4316592737 0.05810415555 -2.594296304e-22)
(0.5304749528 0.03846264733 -1.741643173e-22)
(0.6016965416 0.0262341815 0)
(0.6571197988 0.01831922225 -6.008970675e-23)
(0.7015212031 0.01313599756 6.377872618e-23)
(0.7376040478 0.009542120201 -1.800121916e-23)
(0.7669366159 0.006804464104 2.88592178e-23)
(0.7902104432 0.004464751098 2.314997082e-23)
(0.8074552979 0.002221332421 0)
(0.8182619705 -0.0001500590476 -2.872998065e-23)
(0.8216498538 -0.002723831481 0)
(0.8162393511 -0.005712655942 2.738092472e-23)
(0.7991332853 -0.009611375321 1.421639031e-23)
(0.767998631 -0.01500254903 -5.799454976e-23)
(0.7106555821 -0.02502520286 -2.535675818e-22)
(0.6235184022 -0.04204285799 -6.918121699e-22)
(0.4230091013 -0.09182968488 0)
(0.2705674677 -0.1524021859 -2.119485791e-21)
)
;

boundaryField
{
    movingWall
    {
        type            fixedValue;
        value           uniform (1 0 0);
    }
    fixedWalls
    {
        type            fixedValue;
        value           uniform (0 0 0);
    }
    frontAndBack
    {
        type            empty;
    }
}


// ************************************************************************* //
