/*--------------------------------*- C++ -*----------------------------------*\
  =========                 |
  \\      /  F ield         | OpenFOAM: The Open Source CFD Toolbox
   \\    /   O peration     | Website:  https://openfoam.org
    \\  /    A nd           | Version:  13
     \\/     M anipulation  |
\*---------------------------------------------------------------------------*/
FoamFile
{
    format      ascii;
    class       scalarField;
    location    "16.37";
    object      p_all;
}
// * * * * * * * * * * * * * * * * * * * * * * * * * * * * * * * * * * * * * //


400
(
1.117077058e-06
-0.0005436444941
-0.0008837853073
-0.001009736941
-0.0009295990652
-0.0006757030917
-0.0002856144777
0.0002047460228
0.0007589498947
0.001336606181
0.001892147459
0.002372828519
0.002723343542
0.002890661772
0.0028332537
0.00253304458
0.002010306046
0.00132205987
0.000664612842
6.97220049e-05
0.0005887605308
9.474749277e-06
-0.0003525783694
-0.0004933669682
-0.0004612864552
-0.0002829477014
1.227839652e-05
0.0003951497875
0.00083429285
0.001292501173
0.001730011056
0.002095752252
0.002339422184
0.002413705562
0.002284717453
0.001943596064
0.001416919432
0.0007695486165
0.0001733269947
-0.00048848682
0.0009521360188
0.0003096828862
-8.986205024e-05
-0.0002346570185
-0.0002270279508
-9.705096544e-05
0.0001312373198
0.0004365354284
0.0007951029779
0.001175118764
0.001544236906
0.00184901049
0.002039421695
0.002066785908
0.001895964196
0.001517063009
0.0009539117657
0.0002628869598
-0.0004341755153
-0.001269848289
0.0009753162044
0.0002592648641
-0.0001891716071
-0.0003399095333
-0.000347524099
-0.0002487816701
-6.436741288e-05
0.000193040314
0.0005098034432
0.0008655134275
0.00121951525
0.001528486252
0.001731851044
0.00176917746
0.001591639296
0.001175816742
0.0005334178861
-0.0002889695325
-0.001202555948
-0.002351268165
0.0004803604752
-0.0002829878798
-0.0007600642906
-0.0009101414319
-0.0009292606325
-0.0008586512456
-0.0007134123799
-0.0004941661215
-0.0002007753531
0.0001573935612
0.0005499729619
0.0009287077757
0.001222516267
0.001350654291
0.001236826367
0.0008278850504
0.0001097401024
-0.0008856462472
-0.002093502835
-0.003619436706
-0.0006840984173
-0.001462926598
-0.001950189563
-0.002099453937
-0.002139916828
-0.002113789955
-0.002026389214
-0.001860774846
-0.001595943592
-0.001221651453
-0.0007534816804
-0.0002359445736
0.0002484841228
0.0005901977328
0.0006675222111
0.0003725187283
-0.0003603085401
-0.001529188022
-0.003097506779
-0.005101617017
-0.002655245101
-0.003415364195
-0.003905480866
-0.004068782056
-0.004163246503
-0.00422870947
-0.004255769358
-0.004202778581
-0.004017644657
-0.00365687303
-0.003106094308
-0.002391056513
-0.001597532578
-0.0008676296754
-0.0003892384686
-0.0003629579755
-0.0009516543846
-0.002222261554
-0.004191829918
-0.006783850545
-0.005542155355
-0.006255981216
-0.006752547091
-0.006964012203
-0.007173722289
-0.00741696826
-0.007665487393
-0.007845372846
-0.007860713054
-0.007615558556
-0.007040104281
-0.006111375553
-0.004896159725
-0.003558811063
-0.00236983968
-0.001672112466
-0.001801530697
-0.002972632595
-0.005323758684
-0.008613821689
-0.009414382611
-0.01006022191
-0.01057540771
-0.01088467461
-0.01129546946
-0.01183943598
-0.01246816062
-0.01306986031
-0.01349205403
-0.01356300914
-0.01311926945
-0.0120573086
-0.01036558917
-0.008197189451
-0.005901041421
-0.004010739747
-0.003142069874
-0.003796048756
-0.006378042596
-0.01043975071
-0.01428705557
-0.0148462448
-0.01539163196
-0.0158474075
-0.01654968333
-0.01753259158
-0.01873129198
-0.0199952179
-0.02110636726
-0.02179677679
-0.02177720979
-0.02079142649
-0.01869312674
-0.01554575056
-0.01172686425
-0.007975842585
-0.005304266362
-0.004708098212
-0.007129382272
-0.01192484663
-0.02011524673
-0.02056643213
-0.02113521136
-0.02175340614
-0.02280244119
-0.02433239432
-0.02627185376
-0.02843680315
-0.03054235979
-0.03221192934
-0.03300003337
-0.03244498789
-0.03018940806
-0.02609106788
-0.02044487794
-0.01413264062
-0.008628645031
-0.005669980229
-0.007165179981
-0.01241131212
-0.02680872833
-0.0271162401
-0.02765567428
-0.02837230647
-0.02973189191
-0.03182296523
-0.03458266518
-0.03780341484
-0.04113899221
-0.04410381266
-0.04608371642
-0.04637496214
-0.04436233616
-0.03956537303
-0.03203456004
-0.02262175245
-0.01319921848
-0.006426755294
-0.00575432725
-0.01071216717
-0.03428027002
-0.03436622965
-0.03473730203
-0.03534918693
-0.0368302594
-0.03933968144
-0.0428396669
-0.04710748647
-0.05174167306
-0.05615466749
-0.05957419944
-0.06108679565
-0.05968056411
-0.05456382651
-0.0453574037
-0.03262493891
-0.01838739255
-0.006188469045
-0.001622808509
-0.004826106638
-0.04255113143
-0.04222400383
-0.04214108047
-0.04223943667
-0.0434520247
-0.04604676737
-0.05002048906
-0.0551322363
-0.06091974228
-0.0666971297
-0.07154138815
-0.0743183582
-0.07374494103
-0.06859571728
-0.05800140114
-0.04199908172
-0.02238441243
-0.003207915319
0.007390405756
0.008379559766
-0.05195052665
-0.05070515384
-0.0496243175
-0.04852526022
-0.0488695608
-0.05105614476
-0.05509986972
-0.06071515709
-0.06734806767
-0.07420021396
-0.08019544203
-0.08399543118
-0.08405956139
-0.07877705016
-0.066792184
-0.04748013639
-0.02208949451
0.005535972624
0.02474586451
0.03355278832
-0.06359867729
-0.06013651742
-0.05704871794
-0.05371769819
-0.05241692609
-0.05362556948
-0.05730049507
-0.06306837327
-0.07018546398
-0.07772243306
-0.08441785061
-0.08871960435
-0.08884497967
-0.08279815372
-0.06882090837
-0.04559884125
-0.01373514539
0.02443241937
0.05555379156
0.07736712334
-0.08013581205
-0.07102935772
-0.06408146226
-0.05712960497
-0.05339499215
-0.05317323692
-0.05620789923
-0.06185400309
-0.06919245707
-0.07704885483
-0.08394808343
-0.08809659393
-0.08743679554
-0.07962885112
-0.06246549166
-0.03404679097
0.00555719491
0.05859966863
0.1058226703
0.1480662713
-0.1104670865
-0.08581963629
-0.07157903266
-0.0589488237
-0.05189095322
-0.04985379712
-0.05206351809
-0.05745947537
-0.06480281365
-0.0726493015
-0.07928429047
-0.08266689118
-0.08048760067
-0.06986788427
-0.04822698854
-0.01272804736
0.03822379033
0.1071207555
0.177967183
0.2564643067
-0.1684066275
-0.09988224036
-0.07499118188
-0.05478601326
-0.04460615292
-0.04156542687
-0.04368731891
-0.04934032468
-0.05696767275
-0.06491777797
-0.07131088657
-0.07393665238
-0.07009667966
-0.05699614016
-0.03102471833
0.01192217739
0.07558518392
0.1663879374
0.2761452704
0.4376887807
-0.3983985749
-0.1380755909
-0.07495607554
-0.04708024959
-0.03354086528
-0.03001487586
-0.03277659701
-0.03922845272
-0.04751356092
-0.05588984384
-0.06245199587
-0.06498748041
-0.0609631925
-0.04695043
-0.01875019262
0.02993139743
0.1069442713
0.2334128003
0.4198649982
0.7800089119
)


// ************************************************************************* //
