/*--------------------------------*- C++ -*----------------------------------*\
  =========                 |
  \\      /  F ield         | OpenFOAM: The Open Source CFD Toolbox
   \\    /   O peration     | Website:  https://openfoam.org
    \\  /    A nd           | Version:  13
     \\/     M anipulation  |
\*---------------------------------------------------------------------------*/
FoamFile
{
    format      ascii;
    class       scalarField;
    location    "2.89";
    object      p_all;
}
// * * * * * * * * * * * * * * * * * * * * * * * * * * * * * * * * * * * * * //


400
(
6.286916061e-09
-0.0003058843807
-0.0004288713183
-0.0003552553566
-0.000107097374
0.0002872093977
0.0007975703033
0.001396745208
0.002059510464
0.002760788012
0.003473318517
0.004166431505
0.004804224677
0.00534697597
0.005753838739
0.005987798563
0.006023860059
0.005862313279
0.005572003678
0.005148431204
0.000330660807
5.238568567e-06
-0.0001379023892
-8.070530843e-05
0.0001367452208
0.0004908952889
0.0009564231272
0.001508815211
0.002123984217
0.00277668264
0.003438794842
0.00407858298
0.004660254246
0.005145520728
0.005496487205
0.005681536837
0.00568321711
0.005508646885
0.005199647471
0.004750125387
0.0004581530124
0.0001079263318
-5.454131375e-05
3.576134275e-07
0.0002070656505
0.0005429131134
0.000986022151
0.001515214157
0.00210862982
0.002741963103
0.003386854187
0.00401041727
0.004574759922
0.005039569857
0.005365818827
0.005522058987
0.005492130981
0.005282578292
0.004913829143
0.004384510854
0.0003185181471
-6.109790004e-05
-0.0002431692547
-0.0001840366265
2.80629452e-05
0.0003683193568
0.0008160163849
0.001352805283
0.00195961226
0.002613765247
0.003286647797
0.003943226648
0.004540575655
0.005031749028
0.005369914701
0.005516125187
0.0054485534
0.005170501458
0.004688807808
0.004018304501
-0.0001550648336
-0.0005538804119
-0.0007427063023
-0.0006677581335
-0.0004351739568
-7.190229202e-05
0.0004025812673
0.0009733709866
0.001625145509
0.002337815779
0.003082591023
0.00382174846
0.004504328003
0.005072194489
0.005464128713
0.005626331646
0.005525071363
0.005158691928
0.004525207637
0.003667805272
-0.001023286859
-0.001432092728
-0.001620168985
-0.001519959255
-0.001255283883
-0.0008548536494
-0.0003361095876
0.0002908003572
0.00101611937
0.001824262072
0.002686568945
0.003564923308
0.004396635758
0.00510815789
0.005615569054
0.00583953023
0.005724052892
0.005256450758
0.004422566736
0.00330606622
-0.002345160549
-0.002762842198
-0.002948834908
-0.002819853769
-0.002519540723
-0.002078121346
-0.001509815801
-0.0008179163253
-3.697566896e-06
0.0009245591779
0.001937713301
0.003022031152
0.004082428817
0.00503079554
0.005751340691
0.006122630515
0.006046618297
0.005482807958
0.004388190384
0.002905274876
-0.0041869692
-0.004619697396
-0.004809107382
-0.004657172019
-0.004331042093
-0.003862674322
-0.003261715427
-0.00252164637
-0.001630694287
-0.0005804315588
0.0006304105458
0.001942294473
0.003313838496
0.004623311121
0.005710911492
0.006387708657
0.006476423632
0.005870049451
0.004455243473
0.002462345628
-0.006623832394
-0.007082568706
-0.007287471269
-0.007129250344
-0.006804702646
-0.006349091009
-0.005767045808
-0.005039557259
-0.004135999661
-0.003023915079
-0.001677936685
-0.0001060096179
0.001651389962
0.003474594314
0.005160679994
0.006421779193
0.006938153822
0.006457179796
0.004704159308
0.002034378197
-0.009739186223
-0.01023618432
-0.01047241973
-0.0103326887
-0.0100542569
-0.009679882128
-0.009210962061
-0.008615208036
-0.007838460085
-0.00681222134
-0.005461702277
-0.00372730683
-0.001583193288
0.0008947468344
0.003486005344
0.005779575658
0.00722053367
0.007264590168
0.005289306994
0.001798791291
-0.01362621069
-0.0141686744
-0.01444811046
-0.01434888082
-0.01416820859
-0.01396477558
-0.01374265215
-0.01346009581
-0.01303974547
-0.01236921461
-0.01129945877
-0.009654245737
-0.007277437558
-0.004097819381
-0.0002723263622
0.003684056193
0.006881183712
0.008251648443
0.006475852386
0.002160752153
-0.018397431
-0.01897382228
-0.01928727245
-0.01922283093
-0.01917208154
-0.01922310207
-0.01939320961
-0.0196409336
-0.01987374927
-0.019936
-0.01958792613
-0.01849434963
-0.01625762083
-0.01253426489
-0.007249614742
-0.000904246745
0.005240115606
0.009308865266
0.008708238835
0.003947391497
-0.02421464536
-0.02476238585
-0.02504520676
-0.02493589524
-0.02497939257
-0.02530996175
-0.02597054768
-0.02693282056
-0.02810345525
-0.02929456432
-0.03017332651
-0.03021220258
-0.02868216894
-0.02483936686
-0.01813084193
-0.008790732168
0.001686545842
0.01042600087
0.01276904459
0.008735434486
-0.03136579125
-0.03169455604
-0.03176217769
-0.03138032434
-0.03134517228
-0.03185073547
-0.0329718492
-0.03470051286
-0.03695386986
-0.03952480298
-0.04199646988
-0.04364072121
-0.04333865374
-0.0399385597
-0.03211884272
-0.01952531422
-0.003503396089
0.01222294423
0.02014851721
0.01931299466
-0.04043413622
-0.04002630514
-0.03944847915
-0.03831329725
-0.03781731508
-0.03820530944
-0.03956911268
-0.04190883438
-0.0451454964
-0.04905108448
-0.05312774054
-0.05647361574
-0.05772130435
-0.05488788529
-0.04620626937
-0.03037376656
-0.008062078975
0.01688117488
0.03377842884
0.04024424557
-0.05274828159
-0.05027987309
-0.04814821388
-0.04538336964
-0.04377434532
-0.0435463003
-0.04475089704
-0.04734856562
-0.05122301781
-0.05608939886
-0.06134488833
-0.06589736583
-0.06805884711
-0.06549764924
-0.05567133446
-0.03638637932
-0.007273816348
0.02900054766
0.0588683609
0.078608802
-0.0710303877
-0.06303101472
-0.0575507854
-0.05179868337
-0.04823454487
-0.04682418681
-0.0474441888
-0.04991861443
-0.05401397816
-0.05931657887
-0.06506107966
-0.06993463842
-0.07195689314
-0.06841993662
-0.05622861243
-0.03237415679
0.004635701443
0.05498087703
0.1024979189
0.1435978084
-0.1038496391
-0.08034492419
-0.06805020738
-0.05708025906
-0.05042871403
-0.04724373745
-0.04694439823
-0.04904164036
-0.05304991765
-0.05832665868
-0.06387188238
-0.06811361409
-0.06879045662
-0.06277379606
-0.04651763591
-0.01610166349
0.03126419531
0.09835573773
0.1694771252
0.2473229359
-0.1638868739
-0.0961725548
-0.07372860257
-0.05531655962
-0.04566807947
-0.04150506135
-0.04111219729
-0.04346232561
-0.04775673866
-0.0531244403
-0.05837044176
-0.06173093032
-0.06070294971
-0.05173025932
-0.03090762037
0.007010664937
0.06684839877
0.155565302
0.2649038771
0.4268622034
-0.3937543981
-0.134672116
-0.07403144789
-0.04825507542
-0.03544120045
-0.03097915538
-0.03141889103
-0.03474297427
-0.03981194835
-0.04561644586
-0.05088073111
-0.05379725093
-0.05189237926
-0.04173161681
-0.01819762288
0.02584261238
0.09914792276
0.2234501785
0.4092889585
0.7696732078
)


// ************************************************************************* //
