/*--------------------------------*- C++ -*----------------------------------*\
  =========                 |
  \\      /  F ield         | OpenFOAM: The Open Source CFD Toolbox
   \\    /   O peration     | Website:  https://openfoam.org
    \\  /    A nd           | Version:  13
     \\/     M anipulation  |
\*---------------------------------------------------------------------------*/
FoamFile
{
    format      ascii;
    class       volScalarField;
    location    "45";
    object      p;
}
// * * * * * * * * * * * * * * * * * * * * * * * * * * * * * * * * * * * * * //

dimensions      [0 2 -2 0 0 0 0];

internalField   nonuniform List<scalar> 
400
(
-3.457964389e-09
-0.0005299488869
-0.001176794763
-0.001677976751
-0.001913678174
-0.001834448935
-0.001415699114
-0.0006463801351
0.0004644968028
0.001872718595
0.003483809044
0.00514674306
0.006664983148
0.007828226372
0.008462814409
0.008488390648
0.007961227339
0.007088049724
0.00620165104
0.005647803809
0.0005370812207
-1.121243953e-05
-0.000582648115
-0.0009831148381
-0.001160465363
-0.001087808752
-0.0007438614556
-0.0001134197055
0.0008039833587
0.001979260574
0.003338802491
0.004757351215
0.006065310379
0.00707717548
0.007637376663
0.007672544331
0.007229836132
0.006481905694
0.005690644929
0.005127223395
0.001209254242
0.000523379425
-8.044886401e-05
-0.0004458693026
-0.0006080477516
-0.0005744780681
-0.0003296818611
0.0001491072802
0.0008785298403
0.001851341182
0.003017919047
0.004274570492
0.005466590991
0.006412943825
0.006951758184
0.006995080017
0.006569698218
0.005816307724
0.004940358601
0.004206559096
0.001692354773
0.0008079303807
8.624608251e-05
-0.0003225489165
-0.0005324737786
-0.0005838884309
-0.0004648163261
-0.0001401732702
0.0004291271057
0.001263058885
0.002337403598
0.003564627482
0.004790226164
0.005813841652
0.006437083381
0.006527901486
0.006074785411
0.005191423531
0.004063512105
0.003027519965
0.001730228035
0.0006451101285
-0.0002204181747
-0.0007167497447
-0.001025039438
-0.001210818725
-0.001259513985
-0.001117476155
-0.0007162478459
-1.297660147e-06
0.001035155467
0.00232556869
0.003712528274
0.004963161672
0.005817413341
0.006065752868
0.005627665374
0.004577341978
0.003100558751
0.001666476914
0.001110509628
-0.0001533312675
-0.001164015169
-0.001777678007
-0.002231973136
-0.00260945405
-0.002886607345
-0.002984838118
-0.002798396063
-0.002227516074
-0.001218973343
0.0001942164112
0.00186071785
0.003512201734
0.004804526499
0.005408617072
0.005124421038
0.003948313781
0.002063303902
0.0001329242437
-0.0003452128709
-0.001755371357
-0.002904272117
-0.003662474963
-0.004314513209
-0.004953736853
-0.005543468487
-0.005975259657
-0.006097958386
-0.005752544855
-0.004818794703
-0.003271262089
-0.001227506634
0.001020455208
0.003029333498
0.004300416575
0.00443684017
0.003278651536
0.0009665944491
-0.001571201589
-0.002773922992
-0.004291736551
-0.005567848146
-0.006497170127
-0.007402842267
-0.008386053423
-0.009396473239
-0.01029406988
-0.0108758551
-0.01090872276
-0.01017928119
-0.008562166021
-0.006098497839
-0.003066506081
-2.606626086e-06
0.002377590973
0.003375453747
0.002538001167
-0.0001403451294
-0.003397693888
-0.006259192302
-0.007841331317
-0.009228014844
-0.01034844068
-0.01155877934
-0.01296970061
-0.01452166029
-0.0160460703
-0.01728588125
-0.01792160729
-0.01761897997
-0.01610650535
-0.01328424345
-0.009347286787
-0.004879436981
-0.0008324840781
0.001676180099
0.001694622794
-0.001136988464
-0.005190615315
-0.01082149233
-0.01242036856
-0.01388824284
-0.01519747842
-0.01673753086
-0.01863659429
-0.02083590223
-0.02314672184
-0.02526183047
-0.02677016303
-0.02719557863
-0.02607622516
-0.02310044881
-0.01827840086
-0.01214040486
-0.005828998324
-0.0009664675819
0.0007364307343
-0.001781100475
-0.00659912646
-0.01641833945
-0.01798095631
-0.01947396989
-0.02092044253
-0.02275536753
-0.02514157857
-0.02803630137
-0.03124306258
-0.03441379919
-0.03704980809
-0.03852586904
-0.03815992907
-0.03537513881
-0.02987774144
-0.02199502573
-0.01291957597
-0.004766353306
-0.0002555184761
-0.001630199029
-0.006945781862
-0.0229635418
-0.02442630597
-0.0258386598
-0.02728312485
-0.0292754373
-0.03204289356
-0.03557726894
-0.03968651715
-0.04399192238
-0.04791716678
-0.05069819258
-0.05143965569
-0.04922776118
-0.04341846621
-0.03396178693
-0.02186763462
-0.009571936231
-0.0009324526316
9.150949746e-05
-0.005031000579
-0.03037708918
-0.03164847412
-0.03278613168
-0.0339526835
-0.03581974431
-0.03872441071
-0.04270989639
-0.04759291629
-0.05296673992
-0.05818441075
-0.06235450056
-0.06437698774
-0.06304951072
-0.05730734428
-0.04661046155
-0.03153096604
-0.01449310697
-0.0003756424682
0.004727557722
0.001145955353
-0.03868747424
-0.0395938323
-0.04010383802
-0.0405208214
-0.04180642575
-0.04446312561
-0.04858909534
-0.05399546213
-0.06023213919
-0.06657403924
-0.07200837029
-0.07525359186
-0.07484398841
-0.06932899528
-0.05764381361
-0.03973609281
-0.01761068339
0.003256340816
0.01454281974
0.01474416002
-0.0482348309
-0.0483658372
-0.0475970894
-0.04652810631
-0.04660581215
-0.04853262847
-0.05242772039
-0.05805063989
-0.06486660335
-0.07204230779
-0.07842930934
-0.08256977629
-0.08276007157
-0.07721624319
-0.06439798831
-0.04358311403
-0.01602152394
0.01288530429
0.03298561215
0.04030079427
-0.06001781092
-0.05839214145
-0.05513264497
-0.05150046233
-0.04962504498
-0.05033678871
-0.05366635816
-0.05923409959
-0.06635284533
-0.07403024727
-0.08094663009
-0.08544773186
-0.0855900264
-0.0792804406
-0.06456562572
-0.04012260407
-0.006304866168
0.0322681115
0.06446504882
0.08325841917
-0.07628370244
-0.070740108
-0.06268024854
-0.05499220267
-0.05040571538
-0.04953082364
-0.05209000519
-0.05743712527
-0.0646497353
-0.07251930276
-0.07951525567
-0.0837559959
-0.083029469
-0.07489957907
-0.05697549895
-0.0273456773
0.01455632898
0.06547882767
0.1143749964
0.150174615
-0.1041879189
-0.0879547145
-0.06999737544
-0.05627960073
-0.04838018096
-0.04578877205
-0.0475979876
-0.05274155956
-0.05997528605
-0.0678385168
-0.07458284005
-0.07809987434
-0.07590161736
-0.06514723694
-0.04284974673
-0.006191611902
0.04676892456
0.115332827
0.1914862813
0.2582952003
-0.175989034
-0.114900664
-0.07361566885
-0.05189030267
-0.04118112183
-0.0375783398
-0.0392936772
-0.04475072473
-0.05233824304
-0.06038380624
-0.06700248079
-0.06994418805
-0.06653087101
-0.05358596613
-0.02738301856
0.01641538113
0.08274703711
0.1773910554
0.3054368183
0.4526942456
-0.3558599158
-0.1552645267
-0.07043729938
-0.04278236393
-0.0313500556
-0.02760506127
-0.02978893062
-0.03597779427
-0.04422861806
-0.05274020873
-0.05959867614
-0.06254309159
-0.05884599857
-0.04517751569
-0.01724596899
0.03081816091
0.1084333641
0.2333689915
0.434815293
0.7358806951
)
;

boundaryField
{
    movingWall
    {
        type            zeroGradient;
    }
    fixedWalls
    {
        type            zeroGradient;
    }
    frontAndBack
    {
        type            empty;
    }
}


// ************************************************************************* //
