/*--------------------------------*- C++ -*----------------------------------*\
  =========                 |
  \\      /  F ield         | OpenFOAM: The Open Source CFD Toolbox
   \\    /   O peration     | Website:  https://openfoam.org
    \\  /    A nd           | Version:  13
     \\/     M anipulation  |
\*---------------------------------------------------------------------------*/
FoamFile
{
    format      ascii;
    class       scalarField;
    location    "45";
    object      p_all;
}
// * * * * * * * * * * * * * * * * * * * * * * * * * * * * * * * * * * * * * //


400
(
2.01383741e-08
-0.0005474849814
-0.0008895390698
-0.001017030182
-0.0009381667506
-0.0006853104042
-0.0002960337174
0.0001936796843
0.0007473131298
0.001324381429
0.001879234719
0.002359004285
0.002708292929
0.002874013191
0.002814644419
0.002512201521
0.001987156022
0.001296641176
0.0006377305288
4.183935213e-05
0.0005881741878
6.875676631e-06
-0.0003568704036
-0.0004992101271
-0.0004685566129
-0.000291480219
2.625341657e-06
0.0003844613013
0.0008226204553
0.001279847249
0.001716303904
0.002080834889
0.00232306103
0.002395609162
0.002264609423
0.001921297853
0.001392432689
0.0007430716061
0.0001454396855
-0.0005172446344
0.0009524291315
0.0003080249242
-9.323172331e-05
-0.0002395769276
-0.0002334706773
-0.0001049760437
0.000121868284
0.000425763702
0.0007829672303
0.001161470105
0.001529480396
0.001832872897
0.002021720367
0.002047295798
0.001874458805
0.001493394762
0.0009280924866
0.0002351172833
-0.0004633404061
-0.001300312247
0.000976132145
0.0002579645114
-0.0001922791881
-0.0003445760191
-0.0003538480026
-0.000256880604
-7.430138052e-05
0.0001813003498
0.0004963777696
0.0008506879747
0.001203034131
0.001510500896
0.001712290992
0.001747873551
0.001568379276
0.001150423483
0.0005058341692
-0.0003186468066
-0.001233971505
-0.002384770194
0.0004804736596
-0.0002850233022
-0.000763927573
-0.0009156243223
-0.0009366472519
-0.0008682271571
-0.0007253323469
-0.0005084086276
-0.0002171669457
0.0001391455983
0.0005300921225
0.0009073962723
0.001199830779
0.001326508929
0.00121101796
0.0008001657044
7.990909668e-05
-0.0009176879507
-0.002127669007
-0.003656168667
-0.0006863644183
-0.001467159003
-0.001956216254
-0.0021072725
-0.002150048449
-0.002126695868
-0.002042317154
-0.001879702471
-0.001617595612
-0.001245564454
-0.0007791449757
-0.0002628783115
0.000220608018
0.0005614779524
0.0006378183731
0.000341500493
-0.0003930667019
-0.001564106353
-0.003134891695
-0.005142130007
-0.002661834479
-0.003423545485
-0.003915418146
-0.004080804173
-0.004178175535
-0.004247227954
-0.00427824549
-0.00422919297
-0.004047595077
-0.003689646871
-0.003140793088
-0.002426788291
-0.001633535659
-0.0009034620544
-0.0004248553506
-0.0003987276501
-0.0009882816948
-0.002260626487
-0.004232789535
-0.006828370129
-0.005555042345
-0.006269961681
-0.006768248041
-0.00698219878
-0.007195592929
-0.007443493785
-0.007697201652
-0.007882270235
-0.007902241492
-0.00766068859
-0.00708742384
-0.006159564693
-0.004943809867
-0.003604925149
-0.002413992096
-0.001714576238
-0.001843266616
-0.00301508461
-0.005368523251
-0.008662319921
-0.009435270011
-0.01008160408
-0.01059847014
-0.01091070937
-0.01132611319
-0.01187599977
-0.01251138026
-0.01311976044
-0.01354792688
-0.01362350389
-0.01318263028
-0.01212127409
-0.0104281752
-0.00825670213
-0.005956470612
-0.004062045752
-0.003190311141
-0.003843214398
-0.006426613214
-0.01049180302
-0.0143170378
-0.01487603213
-0.01542302217
-0.01588226485
-0.01659010079
-0.01758023215
-0.01878709544
-0.02005923333
-0.0211777294
-0.02187379199
-0.02185757654
-0.02087246148
-0.01877211825
-0.01562028749
-0.01179525587
-0.008037514451
-0.005360071014
-0.004760330098
-0.007181352281
-0.01197943445
-0.02015454491
-0.02060477604
-0.02117497035
-0.02179697596
-0.02285232966
-0.02439058452
-0.02633945399
-0.02851384476
-0.03062779418
-0.03230373727
-0.03309550073
-0.03254095304
-0.03028273103
-0.02617892804
-0.02052511986
-0.01420414562
-0.00869175206
-0.005726820904
-0.007219466912
-0.01246661445
-0.026856574
-0.02716233373
-0.0277027753
-0.02842319462
-0.0297893948
-0.03188933156
-0.03465911669
-0.0378898816
-0.04123417147
-0.04420530284
-0.04618838228
-0.04647903436
-0.04446333619
-0.03966028371
-0.03212126793
-0.02269898919
-0.01326679384
-0.006486152076
-0.005808842872
-0.01076543883
-0.03433493571
-0.03441834536
-0.03478968802
-0.03540477429
-0.03689208674
-0.03941023931
-0.042920283
-0.04719791851
-0.05184031381
-0.05625863111
-0.05967999103
-0.0611911573
-0.05977978324
-0.05465602989
-0.04544130595
-0.03269994581
-0.01845332403
-0.006246129943
-0.001674172762
-0.004873807333
-0.04261007646
-0.04227964987
-0.04219587296
-0.04229619533
-0.04351394258
-0.04611663978
-0.05009985809
-0.05522063066
-0.06101531397
-0.06679642627
-0.07164037246
-0.07441327407
-0.07383283538
-0.06867515517
-0.05807221736
-0.04206208913
-0.02244029748
-0.003257464223
0.007346830268
0.008341226341
-0.05201058006
-0.05076123665
-0.0496780626
-0.04857916258
-0.04892702824
-0.05112045884
-0.05517315956
-0.06079651248
-0.06743582302
-0.0742901915
-0.08028307002
-0.08407652368
-0.08413095621
-0.07883784203
-0.06684310383
-0.04752371142
-0.02212773903
0.005501524824
0.02471512741
0.03352716783
-0.06365617839
-0.06018947708
-0.05709762342
-0.0537646746
-0.05246581954
-0.05368049261
-0.05736534512
-0.0631385501
-0.07026302691
-0.07780149175
-0.0844931812
-0.08878639312
-0.08889871037
-0.08283998318
-0.06885106558
-0.0456210864
-0.01375176328
0.02441666966
0.05553942312
0.0773556638
-0.08018673494
-0.07107529157
-0.06412154705
-0.05716585345
-0.05343201806
-0.05321611059
-0.05625987761
-0.06191491182
-0.06926006389
-0.07711805523
-0.08401331843
-0.08815277323
-0.08748120192
-0.07965691772
-0.06247976168
-0.03405067258
0.005564719144
0.05859389791
0.1058229381
0.148067646
-0.1105081215
-0.08585542855
-0.07160739426
-0.05897243188
-0.05191484238
-0.04988460134
-0.05210442483
-0.05751059228
-0.06486142611
-0.07271031195
-0.07934173025
-0.08271502418
-0.08052074573
-0.06988764409
-0.04823270611
-0.01272273823
0.03823604132
0.1071320103
0.1779785734
0.2564764122
-0.168438298
-0.09990959148
-0.07500968653
-0.05479931231
-0.04462046264
-0.04158700745
-0.04371965339
-0.04938359778
-0.05701926548
-0.06497284077
-0.07136370918
-0.07398197917
-0.07013077181
-0.05701424569
-0.03102884342
0.01192920058
0.07559939241
0.1664041611
0.27616194
0.4377042031
-0.3984295793
-0.1381007414
-0.07497184908
-0.04708986386
-0.03355094082
-0.03003175718
-0.03280397694
-0.0392668041
-0.04756060572
-0.05594116488
-0.06250218096
-0.06503124629
-0.06099647887
-0.04697026886
-0.01875705653
0.02993532773
0.1069555851
0.2334271748
0.41988013
0.7800233117
)


// ************************************************************************* //
