/*--------------------------------*- C++ -*----------------------------------*\
  =========                 |
  \\      /  F ield         | OpenFOAM: The Open Source CFD Toolbox
   \\    /   O peration     | Website:  https://openfoam.org
    \\  /    A nd           | Version:  13
     \\/     M anipulation  |
\*---------------------------------------------------------------------------*/
FoamFile
{
    format      ascii;
    class       volVectorField;
    location    "45";
    object      U;
}
// * * * * * * * * * * * * * * * * * * * * * * * * * * * * * * * * * * * * * //

dimensions      [0 1 -1 0 0 0 0];

internalField   nonuniform List<vector> 
400
(
(0.0001833475908 -0.000187258893 0)
(-0.0001370358995 2.960312594e-05 0)
(-0.001534303788 0.0002682325054 0)
(-0.003789408514 0.0004194635989 0)
(-0.006553676957 0.0004994371323 0)
(-0.009525333484 0.0005300077057 0)
(-0.01245392032 0.0005209486666 0)
(-0.01510528793 0.0004711510009 0)
(-0.01723825017 0.0003737739218 0)
(-0.01860533154 0.0002233741999 0)
(-0.01898024041 2.318134794e-05 0)
(-0.01820752563 -0.0002093553194 0)
(-0.01626217165 -0.000440139918 0)
(-0.0133005334 -0.0006224389489 0)
(-0.009680482909 -0.0007075066724 0)
(-0.005930338946 -0.0006603609467 0)
(-0.002657978855 -0.0004748950082 0)
(-0.0004059856861 -0.0001818247408 0)
(0.0005416996477 0.0001376317481 0)
(0.0003101970247 0.000303196666 0)
(-4.686393126e-05 0.0001360099113 0)
(-0.002081044974 0.001933887515 0)
(-0.006439680958 0.003763549961 0)
(-0.01259686733 0.00502887223 0)
(-0.01979271839 0.005695086646 0)
(-0.0273551766 0.005838737959 0)
(-0.03467810318 0.005510403637 0)
(-0.04117809609 0.004716300836 0)
(-0.04627402527 0.003446505325 0)
(-0.04940640657 0.001720523666 0)
(-0.05010152097 -0.0003685294607 0)
(-0.04806909266 -0.002625531717 0)
(-0.04331081697 -0.004752427344 0)
(-0.03620713466 -0.006385178232 0)
(-0.02754521291 -0.007170404314 0)
(-0.01845417846 -0.006870842429 0)
(-0.01022630611 -0.005472008773 0)
(-0.004032756555 -0.003257231076 0)
(-0.0005751786148 -0.0008602521908 0)
(0.0002222393482 0.0005909326688 0)
(-0.0003533971089 0.001717756225 0)
(-0.004491346662 0.006471704569 0)
(-0.01188328295 0.01068415613 0)
(-0.02162447165 0.01353277333 0)
(-0.03261512242 0.01496849297 0)
(-0.04394162572 0.01511901909 0)
(-0.05476388981 0.0140735855 0)
(-0.06426372191 0.0118543354 0)
(-0.07163723005 0.008474547988 0)
(-0.07613110427 0.004029375773 0)
(-0.07712505313 -0.001219608593 0)
(-0.07424749968 -0.006794414173 0)
(-0.06750122396 -0.01200711708 0)
(-0.05736815512 -0.01603915148 0)
(-0.04485532683 -0.01809993991 0)
(-0.03143834671 -0.01764914035 0)
(-0.01886173182 -0.01463256539 0)
(-0.008794246479 -0.009655439007 0)
(-0.002418476413 -0.004055550962 0)
(3.567879237e-05 2.689693385e-05 0)
(-0.00063120711 0.004599064617 0)
(-0.00681947655 0.01368891983 0)
(-0.0171215957 0.02094483079 0)
(-0.03018566584 0.02565842123 0)
(-0.04456979622 0.02789484285 0)
(-0.05917916601 0.02787336638 0)
(-0.07302731605 0.02573331597 0)
(-0.08515469791 0.0215208905 0)
(-0.09462039645 0.01528827219 0)
(-0.1005407964 0.007232473357 0)
(-0.102172921 -0.002180018404 0)
(-0.09903195653 -0.01214047925 0)
(-0.09102743572 -0.02150489589 0)
(-0.07859687025 -0.02890658858 0)
(-0.06280233462 -0.03299172949 0)
(-0.04533397648 -0.03277225142 0)
(-0.02834618825 -0.02803324507 0)
(-0.01409020653 -0.01966053734 0)
(-0.004433390935 -0.009751377222 0)
(-0.0001247907686 -0.001513778729 0)
(-0.0008705758408 0.008663443945 0)
(-0.008902044417 0.02335726946 0)
(-0.02184584203 0.03421378441 0)
(-0.03791061203 0.04096468264 0)
(-0.0553339568 0.04396333406 0)
(-0.07288516455 0.04359684836 0)
(-0.08949812014 0.04008182539 0)
(-0.1041449804 0.0334947685 0)
(-0.1158099307 0.02392346737 0)
(-0.1235124923 0.01165587139 0)
(-0.1263753961 -0.0026538736 0)
(-0.1237327132 -0.01788104357 0)
(-0.1152766664 -0.03241695306 0)
(-0.1012363228 -0.04428457514 0)
(-0.08256090395 -0.05142443995 0)
(-0.06104069902 -0.05217896754 0)
(-0.03924609556 -0.04592421326 0)
(-0.0201797408 -0.03365528711 0)
(-0.006685549036 -0.01822897042 0)
(-0.0002712190258 -0.004089280456 0)
(-0.001067759698 0.01374975181 0)
(-0.01065721208 0.0351739557 0)
(-0.02586278146 0.05013746786 0)
(-0.04451343921 0.05908502752 0)
(-0.0645790145 0.0628322863 0)
(-0.08474106592 0.06202611926 0)
(-0.1039120126 0.05699788058 0)
(-0.1210579131 0.04785708702 0)
(-0.1351402951 0.03470344491 0)
(-0.1451081902 0.01786787764 0)
(-0.1499356898 -0.001875013508 0)
(-0.1487093182 -0.0231539407 0)
(-0.1407803762 -0.04393701503 0)
(-0.1259942575 -0.06160028888 0)
(-0.1049852704 -0.0732152726 0)
(-0.07947095169 -0.07614283085 0)
(-0.05238538486 -0.06894276851 0)
(-0.02764647829 -0.05238025438 0)
(-0.009456408508 -0.03001606034 0)
(-0.0004465456441 -0.007850031111 0)
(-0.001215110543 0.0196645901 0)
(-0.01200997976 0.04875392066 0)
(-0.02899382928 0.06826606184 0)
(-0.04970185636 0.07957510333 0)
(-0.07190684309 0.08411330672 0)
(-0.09425349026 0.0828805441 0)
(-0.1156871244 0.07636520728 0)
(-0.1352267253 0.06470998536 0)
(-0.1518664491 0.0479878452 0)
(-0.1645247883 0.02649608971 0)
(-0.1720383897 0.001020779698 0)
(-0.1732164444 -0.02694430753 0)
(-0.1669801886 -0.05504387406 0)
(-0.1526256859 -0.08002575815 0)
(-0.1302307787 -0.09795116716 0)
(-0.1011603079 -0.1048295068 0)
(-0.06850529961 -0.09781857727 0)
(-0.03715186379 -0.07685151178 0)
(-0.01310723458 -0.04596388488 0)
(-0.000702271904 -0.01312564423 0)
(-0.001303926788 0.02617565683 0)
(-0.01288842347 0.06362408803 0)
(-0.03106614639 0.08803198466 0)
(-0.0531714922 0.1018561263 0)
(-0.07685465631 0.1072719962 0)
(-0.1007715102 0.1057212402 0)
(-0.1239507447 0.09789588954 0)
(-0.1455237216 0.08397503405 0)
(-0.1645835921 0.0639626478 0)
(-0.1800864529 0.03803244112 0)
(-0.1907930675 0.006845960286 0)
(-0.1952706896 -0.02815105393 0)
(-0.19199223 -0.06445262501 0)
(-0.1795916029 -0.09829568034 0)
(-0.1573390334 -0.1246870581 0)
(-0.1258538587 -0.1379412016 0)
(-0.08794764165 -0.133077543 0)
(-0.04927035578 -0.1082195271 0)
(-0.01803289003 -0.06724370134 0)
(-0.001101655604 -0.02044994796 0)
(-0.001329497668 0.03301597931 0)
(-0.01324586131 0.07923264939 0)
(-0.03194913437 0.1087501127 0)
(-0.05465740991 0.1251899653 0)
(-0.07896491429 0.1315681413 0)
(-0.1035793268 0.1298524074 0)
(-0.1276579657 0.1209927069 0)
(-0.150504569 0.1052198028 0)
(-0.1713903738 0.08243849682 0)
(-0.1894096403 0.05261687109 0)
(-0.2033662644 0.01615224913 0)
(-0.2117076579 -0.02575636298 0)
(-0.2125477599 -0.070700559 0)
(-0.2038501018 -0.1146596198 0)
(-0.1838856618 -0.1517276931 0)
(-0.1520804217 -0.1743450969 0)
(-0.110286832 -0.1746289845 0)
(-0.06429903415 -0.147488089 0)
(-0.02463200341 -0.09526761558 0)
(-0.001727897263 -0.03057411354 0)
(-0.001298521237 0.03990681446 0)
(-0.0130994364 0.09498241605 0)
(-0.0316222127 0.1296386318 0)
(-0.05403000212 0.1486745436 0)
(-0.07791275343 0.1560205658 0)
(-0.1020643007 0.1542541172 0)
(-0.1258120749 0.1446488686 0)
(-0.1486909713 0.1275229289 0)
(-0.170236112 0.1026793766 0)
(-0.1898033161 0.06983014238 0)
(-0.2064066759 0.02899453033 0)
(-0.218577328 -0.01907399664 0)
(-0.2242834289 -0.07236512681 0)
(-0.2209664859 -0.1269974504 0)
(-0.2058604095 -0.1765498391 0)
(-0.1768225644 -0.2117411874 0)
(-0.1339206586 -0.2212408285 0)
(-0.08198060384 -0.1950401701 0)
(-0.03325134484 -0.1314979749 0)
(-0.002694935087 -0.04447392943 0)
(-0.001238987092 0.0466063719 0)
(-0.0125816966 0.1103004987 0)
(-0.03026388025 0.1498729694 0)
(-0.05141871079 0.1712719679 0)
(-0.07366882812 0.1794123204 0)
(-0.09593349865 0.1775695164 0)
(-0.1177562138 0.1674183088 0)
(-0.1389602081 0.1494220563 0)
(-0.1594255149 0.1233154626 0)
(-0.1788922883 0.08855297639 0)
(-0.1967675125 0.04471836086 0)
(-0.2119164687 -0.008034388086 0)
(-0.2224784908 -0.06841358218 0)
(-0.2256975296 -0.1331546456 0)
(-0.2179773959 -0.1959894959 0)
(-0.1954782981 -0.2465401547 0)
(-0.1557367556 -0.2700372886 0)
(-0.1011283322 -0.2499749788 0)
(-0.04405816017 -0.1770816069 0)
(-0.00415721091 -0.06333824613 0)
(-0.001213576087 0.05299227012 0)
(-0.01200484209 0.1247519715 0)
(-0.02835134644 0.1686767347 0)
(-0.04733815296 0.191872147 0)
(-0.06665538444 0.2003420443 0)
(-0.08541756241 0.1981590349 0)
(-0.1034526234 0.1874787971 0)
(-0.1209316317 0.1689788916 0)
(-0.1381432684 0.1423879701 0)
(-0.155302401 0.1069523366 0)
(-0.1723561011 0.06183361535 0)
(-0.1887576454 0.00651718218 0)
(-0.2031531393 -0.05863821903 0)
(-0.213044074 -0.1314944501 0)
(-0.2145166177 -0.2067810584 0)
(-0.2023116922 -0.274147905 0)
(-0.1710725299 -0.3162667698 0)
(-0.1192446253 -0.3093768632 0)
(-0.05679423022 -0.2322380367 0)
(-0.006312093797 -0.08850835553 0)
(-0.001341159778 0.05919048149 0)
(-0.01194431039 0.1381987629 0)
(-0.02676069817 0.18543693 0)
(-0.04278158158 0.209373242 0)
(-0.05783274836 0.217302946 0)
(-0.07136791733 0.2142055575 0)
(-0.08361710215 0.2027763564 0)
(-0.09516967786 0.1839591933 0)
(-0.1067626483 0.1575427241 0)
(-0.1191222533 0.1226474175 0)
(-0.1328029425 0.07809692648 0)
(-0.147976095 0.02275704544 0)
(-0.164101838 -0.04400537284 0)
(-0.1794592755 -0.1215404291 0)
(-0.1905273534 -0.2064045633 0)
(-0.1914030541 -0.2897614319 0)
(-0.1741503093 -0.3536168645 0)
(-0.1323333309 -0.3677969139 0)
(-0.07039318161 -0.2953729376 0)
(-0.009381033271 -0.1212964836 0)
(-0.00183736958 0.06577369096 0)
(-0.01335727496 0.1509957686 0)
(-0.02685099088 0.1998051315 0)
(-0.03922207376 0.2227298996 0)
(-0.04861615228 0.2287384369 0)
(-0.0551080531 0.2238161139 0)
(-0.05952387003 0.2111900161 0)
(-0.06295935663 0.1920618961 0)
(-0.06661287057 0.166310771 0)
(-0.07169339597 0.1330110414 0)
(-0.07932705345 0.09077755704 0)
(-0.09041316416 0.03801768266 0)
(-0.1053620351 -0.02677626374 0)
(-0.1236245504 -0.104472148 0)
(-0.1428719559 -0.1940033812 0)
(-0.1577493631 -0.289555491 0)
(-0.1588917969 -0.375202587 0)
(-0.1350545128 -0.4173159662 0)
(-0.08250264121 -0.3620423244 0)
(-0.01351706446 -0.1625230734 0)
(-0.003074689936 0.07405411295 0)
(-0.01773073146 0.1641912221 0)
(-0.0304470268 0.2116996883 0)
(-0.03834432688 0.2308752832 0)
(-0.04037502678 0.232984251 0)
(-0.03774308461 0.2250262602 0)
(-0.03215234675 0.2106101632 0)
(-0.02530318025 0.1910747426 0)
(-0.01884111474 0.1663443004 0)
(-0.01437622039 0.1354850131 0)
(-0.01348823185 0.09702898399 0)
(-0.01768553629 0.04914895882 0)
(-0.02827015566 -0.01021863063 0)
(-0.04600711026 -0.08314210073 0)
(-0.07036089867 -0.1709326882 0)
(-0.09785675385 -0.2718324049 0)
(-0.1196290807 -0.3750119851 0)
(-0.1210572085 -0.448441384 0)
(-0.0889798962 -0.4242922919 0)
(-0.01849471794 -0.2117119272 0)
(-0.005570792625 0.08658048896 0)
(-0.02706949298 0.1796199247 0)
(-0.03928475515 0.2209449674 0)
(-0.04081801006 0.2322599579 0)
(-0.03267026938 0.2278866069 0)
(-0.01802591986 0.2155327366 0)
(0.0002051899633 0.1987785194 0)
(0.0196592467 0.1788172643 0)
(0.03830878181 0.1554756819 0)
(0.05427288338 0.1277895334 0)
(0.06568777266 0.09430031626 0)
(0.07063357951 0.05317044766 0)
(0.0671269816 0.002181988322 0)
(0.05324598508 -0.06133411516 0)
(0.02759264124 -0.1404255263 0)
(-0.009217800347 -0.2374550486 0)
(-0.05112964575 -0.3491342633 0)
(-0.08306505239 -0.451560518 0)
(-0.08340193364 -0.4711281298 0)
(-0.02311179891 -0.266730384 0)
(-0.009891803756 0.1087104264 0)
(-0.04293347433 0.1996118338 0)
(-0.05209880876 0.2258116987 0)
(-0.0415687325 0.2233839633 0)
(-0.01755407161 0.209685124 0)
(0.01367078185 0.1919321351 0)
(0.04792556662 0.1728178817 0)
(0.08237631815 0.1529076657 0)
(0.1148571507 0.1316940449 0)
(0.1434655899 0.1081148653 0)
(0.1662996246 0.08078274493 0)
(0.1812839124 0.04803669413 0)
(0.1860492406 0.007871216629 0)
(0.1778935771 -0.04231549492 0)
(0.1538711184 -0.1062076156 0)
(0.1116075586 -0.1891048906 0)
(0.05241021464 -0.2959870844 0)
(-0.01245184006 -0.4177344242 0)
(-0.05671886241 -0.488950289 0)
(-0.02465121528 -0.3240408814 0)
(-0.01781175253 0.1516659041 0)
(-0.06127900558 0.2236368719 0)
(-0.05220891147 0.2176951802 0)
(-0.01424100583 0.1950029288 0)
(0.0355994651 0.1711470544 0)
(0.08885885411 0.1491719842 0)
(0.141546625 0.1294728254 0)
(0.1913727041 0.1114579533 0)
(0.2367380636 0.09409015165 0)
(0.2762410303 0.07619000843 0)
(0.3083503051 0.05652582806 0)
(0.3311979059 0.03377609805 0)
(0.342406397 0.006425701344 0)
(0.3389826092 -0.02750747138 0)
(0.3171217478 -0.07118358049 0)
(0.2722426313 -0.1305414725 0)
(0.2001504046 -0.2164917665 0)
(0.1030089223 -0.3383527565 0)
(0.004372213761 -0.4567852415 0)
(-0.01595931086 -0.3693248665 0)
(-0.0242247071 0.2082631754 0)
(-0.03791643389 0.2303547171 0)
(0.03727948669 0.1765398277 0)
(0.1250832906 0.13687599 0)
(0.2058876304 0.1090940107 0)
(0.2781040813 0.08825591893 0)
(0.3423931279 0.07216053532 0)
(0.3990371462 0.05921894945 0)
(0.4480797281 0.04805077931 0)
(0.4892885776 0.03752481669 0)
(0.5219877158 0.02670249703 0)
(0.5449446279 0.01473731731 0)
(0.5562787006 0.0007572047553 0)
(0.553340351 -0.01630902603 0)
(0.5323174915 -0.03830054261 0)
(0.4877480764 -0.06915821387 0)
(0.411144362 -0.1191021955 0)
(0.2908897888 -0.209350913 0)
(0.1331344745 -0.3382880716 0)
(0.038775997 -0.3403654893 0)
(0.2418851346 0.1091317488 0)
(0.3134518404 0.09711544835 0)
(0.4443156785 0.05696656184 0)
(0.5496292718 0.03510762537 0)
(0.6240722563 0.02373826339 0)
(0.6796317266 0.01670857465 0)
(0.7235246731 0.01197860887 0)
(0.7588452691 0.008692366382 0)
(0.7871414716 0.006253074796 0)
(0.8092099613 0.004229701872 0)
(0.8252290772 0.002328007597 0)
(0.8348296848 0.0003401106305 0)
(0.8371504499 -0.001910287916 0)
(0.8307736543 -0.004591490208 0)
(0.8133986807 -0.008028968001 0)
(0.7811348842 -0.01288458145 0)
(0.7256905012 -0.02122860604 0)
(0.629862358 -0.03809175358 0)
(0.4592683353 -0.08554876265 0)
(0.3048941603 -0.1256975437 0)
)
;

boundaryField
{
    movingWall
    {
        type            fixedValue;
        value           uniform (1 0 0);
    }
    fixedWalls
    {
        type            fixedValue;
        value           uniform (0 0 0);
    }
    frontAndBack
    {
        type            empty;
    }
}


// ************************************************************************* //
