/*--------------------------------*- C++ -*----------------------------------*\
  =========                 |
  \\      /  F ield         | OpenFOAM: The Open Source CFD Toolbox
   \\    /   O peration     | Website:  https://openfoam.org
    \\  /    A nd           | Version:  13
     \\/     M anipulation  |
\*---------------------------------------------------------------------------*/
FoamFile
{
    format      ascii;
    class       volVectorField;
    location    "45";
    object      U_0;
}
// * * * * * * * * * * * * * * * * * * * * * * * * * * * * * * * * * * * * * //

dimensions      [0 1 -1 0 0 0 0];

internalField   nonuniform List<vector> 
400
(
(1.100731375e-05 -3.7830845e-05 0)
(-0.0006660936569 0.000413042971 -1.551366907e-23)
(-0.002185373691 0.0009203937754 0)
(-0.004047832125 0.001312781179 0)
(-0.005971868055 0.001535066101 6.845734732e-25)
(-0.0077627835 0.001569847981 4.150949724e-24)
(-0.009284545822 0.001423563383 -7.374077006e-24)
(-0.01043594211 0.001119722913 7.530080029e-24)
(-0.01113681495 0.0006960824773 -2.095324152e-25)
(-0.01132711186 0.0002030780244 -3.994567258e-24)
(-0.0109717728 -0.0003002328467 5.803547912e-24)
(-0.01007232794 -0.0007475158051 -5.929544528e-23)
(-0.008679880062 -0.001075562565 -6.552665238e-23)
(-0.006902852991 -0.001233044639 -7.784244673e-23)
(-0.00491073808 -0.001192638877 4.573536058e-24)
(-0.002927231929 -0.0009619205853 -4.137879733e-24)
(-0.001205299318 -0.0005912114847 -1.998728121e-22)
(-1.906887312e-05 -0.0001698824297 0)
(0.0005181533002 0.0001720863133 1.509617873e-25)
(0.0002227511065 0.0003059790113 -2.553393402e-24)
(-0.0002633621119 0.0008289713302 1.382924489e-25)
(-0.00270330409 0.003383842817 1.561164756e-23)
(-0.006907275813 0.005604501874 1.555466163e-25)
(-0.01195231935 0.007008207987 -8.496014745e-25)
(-0.01713504484 0.007553776671 1.162219449e-24)
(-0.02197535532 0.007294200554 1.306937762e-23)
(-0.0261107618 0.006321894996 1.387950893e-24)
(-0.02926564809 0.004754193578 -7.281800778e-24)
(-0.03122673081 0.002737151928 1.015249971e-23)
(-0.03184201069 0.0004524059 4.509896819e-24)
(-0.03102761539 -0.001884144432 -6.318812703e-24)
(-0.02879316717 -0.004023029128 2.961841026e-24)
(-0.02527138434 -0.00570835419 3.895530159e-23)
(-0.02073194935 -0.006707409425 -1.954755996e-24)
(-0.01558962669 -0.006854140308 3.754448641e-24)
(-0.01038513413 -0.006097464685 -9.740828041e-23)
(-0.005730272218 -0.004546186968 9.637528031e-23)
(-0.002233367079 -0.002507419295 -3.96115569e-25)
(-0.0001817764503 -0.000502372293 4.061056661e-25)
(8.343435208e-05 0.0006099257738 0)
(-0.0004188231749 0.002935080475 -2.910356806e-25)
(-0.004647874234 0.00880401645 1.701983596e-23)
(-0.01137196013 0.01324042518 -8.284050535e-24)
(-0.01932729123 0.01579204209 -2.075627088e-25)
(-0.02747411782 0.01653000138 2.03908659e-25)
(-0.03511778937 0.01564441785 6.79703658e-27)
(-0.04171344933 0.01335997704 -1.220445387e-24)
(-0.0468357183 0.009919771731 -4.551223782e-25)
(-0.05014989035 0.005602433398 -1.06306869e-23)
(-0.05141232013 0.0007444201583 0)
(-0.05047793366 -0.004241781172 0)
(-0.04733706384 -0.008887187776 2.670980309e-23)
(-0.04215927995 -0.01268177 2.812999838e-23)
(-0.03531437478 -0.01513605211 -1.646148095e-24)
(-0.0273899628 -0.0158618958 4.845807185e-23)
(-0.01917005892 -0.01467334187 9.419135064e-23)
(-0.01156090749 -0.01169360403 3.975532576e-23)
(-0.0054654124 -0.007450743357 4.1415386e-25)
(-0.001451100669 -0.002936043987 1.073894119e-25)
(-9.072818544e-05 0.0002258770679 0)
(-0.0005024630633 0.006045350962 -4.248799752e-23)
(-0.006402739893 0.01637075731 -1.692206791e-23)
(-0.0155350248 0.02355933771 8.210890648e-24)
(-0.02627912126 0.0274416279 0)
(-0.03728746864 0.02832102327 0)
(-0.0476903762 0.02658772664 0)
(-0.05679663193 0.02263120441 -4.46534697e-26)
(-0.06405384212 0.01683609361 -2.136986326e-24)
(-0.06901081692 0.00962218408 0)
(-0.07130828068 0.001491049938 1.635390894e-24)
(-0.0707085371 -0.006936504491 2.802742962e-25)
(-0.06713039599 -0.01493018955 -2.810590581e-25)
(-0.06069905769 -0.02166728308 0)
(-0.05180750649 -0.02631605917 4.133235002e-23)
(-0.04114991729 -0.02816071017 -4.681521439e-23)
(-0.02971970231 -0.02677372342 -2.761863207e-23)
(-0.01873716682 -0.0222153059 -3.96067657e-23)
(-0.009488028823 -0.01521922231 7.795846711e-25)
(-0.002976880933 -0.007298194935 9.790456956e-23)
(-0.0002318805094 -0.0008661676562 0)
(-0.0005316130711 0.01009501677 4.269460195e-23)
(-0.007983592908 0.02595219722 4.785484376e-25)
(-0.01939687538 0.03642883076 -4.676185086e-25)
(-0.03282382562 0.04185520978 0)
(-0.04664689157 0.04289485481 7.782918882e-25)
(-0.0598522986 0.04020074249 -7.675006099e-25)
(-0.07163291602 0.03434741832 3.672293299e-23)
(-0.08132751491 0.02585664189 1.848234064e-23)
(-0.0883660132 0.01527298389 6.238935953e-24)
(-0.09225469771 0.003246146946 -1.63729615e-24)
(-0.09260380001 -0.009407832995 0)
(-0.08917555707 -0.02167478125 4.370592869e-25)
(-0.08195979424 -0.03236745208 1.009004659e-23)
(-0.0712688557 -0.04021250326 -4.349265084e-23)
(-0.05782018887 -0.04402046536 1.932869546e-24)
(-0.04278582984 -0.04294829542 4.217141082e-23)
(-0.02775450331 -0.0368334707 -3.841539418e-25)
(-0.01455062336 -0.02652721062 0)
(-0.00485946281 -0.01408454523 5.436551558e-23)
(-0.0003641487208 -0.002846953054 -2.565087984e-22)
(-0.0005272209647 0.01499927792 9.841536933e-23)
(-0.009377925445 0.03739022453 -4.907782863e-25)
(-0.02288182828 0.05170223257 0)
(-0.03883043639 0.05894183417 0)
(-0.05538656946 0.06025574908 -8.732141042e-23)
(-0.07142876891 0.05661901302 -8.499096437e-23)
(-0.08606654401 0.04880168951 -4.067549077e-23)
(-0.09855086274 0.03743980628 -1.5043783e-23)
(-0.1081945341 0.02315984015 -5.368968054e-24)
(-0.1143444759 0.006709679238 -8.175026186e-24)
(-0.1164046237 -0.010932922 6.60115067e-24)
(-0.1138937427 -0.02848945128 8.826713494e-24)
(-0.1065487003 -0.04437046377 -1.892318395e-23)
(-0.09446804225 -0.05675333918 4.607522741e-24)
(-0.07826857007 -0.06378298837 0)
(-0.05922895479 -0.06393495589 -1.572825676e-23)
(-0.03933981908 -0.05653816421 -2.430244298e-26)
(-0.02114188813 -0.04235809213 0)
(-0.007318702797 -0.0239822945 -1.520657373e-22)
(-0.0005216165638 -0.005925544877 6.056289753e-22)
(-0.000499082161 0.02064574628 -9.774488718e-23)
(-0.01052951005 0.05045438336 2.831984909e-22)
(-0.02582957507 0.06912511951 1.526862252e-22)
(-0.04402138427 0.07849258207 3.619291987e-24)
(-0.06310739351 0.08029476714 -7.319358691e-23)
(-0.08190405296 0.07588043175 9.043552868e-23)
(-0.09947763901 0.06621690884 -3.590220809e-24)
(-0.1150227399 0.05201695174 -1.729173806e-24)
(-0.1277519202 0.03392358531 2.524166939e-24)
(-0.1368472624 0.01270233181 7.382658744e-24)
(-0.1414710546 -0.01058782373 -6.500897373e-24)
(-0.1408248205 -0.03446024453 -9.788137728e-24)
(-0.1342745991 -0.05692771826 -3.261738884e-23)
(-0.1215450259 -0.07553316363 -3.661474612e-23)
(-0.1029672672 -0.08754260721 5.645921001e-25)
(-0.07976369989 -0.09039209818 0)
(-0.05426682521 -0.08244513871 0)
(-0.0298716095 -0.06397736946 -2.90607737e-24)
(-0.01066285138 -0.03798794765 2.970526881e-24)
(-0.0007350935891 -0.01050089503 1.027871559e-22)
(-0.0004479165701 0.02687251201 0)
(-0.01134923251 0.06480757722 2.001985199e-22)
(-0.02801599735 0.08829617495 8.962054467e-23)
(-0.04799857445 0.1001234974 0)
(-0.06920602151 0.1027076582 1.569887675e-22)
(-0.09044373404 0.0978157889 0)
(-0.1107831706 0.08661103256 -1.428390833e-22)
(-0.1294093791 0.06983950511 6.515573085e-24)
(-0.1454771664 0.04808232275 0)
(-0.1580351842 0.02201755583 0)
(-0.1660133485 -0.007334440215 -1.374415086e-24)
(-0.1682671587 -0.03838839823 -9.316795189e-25)
(-0.1637064727 -0.06883975983 1.491983149e-22)
(-0.1515208789 -0.09558275904 -4.704639804e-23)
(-0.1315134577 -0.1148298675 -2.560976106e-24)
(-0.1045596092 -0.1225703427 1.534735654e-24)
(-0.07309349984 -0.1155517981 -1.558945016e-24)
(-0.04135021528 -0.09283115692 0)
(-0.01525230277 -0.05740767714 3.203820049e-24)
(-0.001044308969 -0.01714714509 -1.012916228e-21)
(-0.0003744664673 0.03346304567 0)
(-0.01175006066 0.07998918921 -1.128293558e-22)
(-0.02920707963 0.108639097 -6.191158071e-22)
(-0.05031745101 0.123223402 -3.755311011e-22)
(-0.07296317572 0.1269097063 0)
(-0.09598960377 0.1219255666 4.11946057e-22)
(-0.1185273507 0.1096348664 1.260927198e-22)
(-0.1398146447 0.0907824602 -5.581843577e-24)
(-0.1590221581 0.06581393239 5.554216449e-24)
(-0.1751461035 0.03520881105 0)
(-0.1869560017 -0.0001967476611 2.912135091e-23)
(-0.1930172681 -0.03889754437 4.695848937e-24)
(-0.1917809947 -0.07843888667 -1.07681119e-22)
(-0.1817874468 -0.1151865395 8.004226641e-23)
(-0.1620570463 -0.1442599484 -2.419750601e-22)
(-0.1327062022 -0.1598548649 0)
(-0.09577888298 -0.1563112906 0)
(-0.05601633123 -0.13029811 0)
(-0.0214785915 -0.08381135208 0)
(-0.001500384524 -0.02665516336 5.572126628e-22)
(-0.0002873898401 0.04016077801 0)
(-0.01169359609 0.09543611695 -3.493021644e-22)
(-0.02924438292 0.1294073654 8.932810529e-22)
(-0.05060947313 0.1469299198 3.617183163e-22)
(-0.07370082706 0.1519748702 0)
(-0.09745151221 0.1472757987 -3.862558149e-22)
(-0.1211069849 0.1344191971 -3.174432547e-23)
(-0.1440324802 0.1141393334 3.333107113e-22)
(-0.1655143253 0.08670006696 1.769476071e-22)
(-0.1846248541 0.05229123509 -4.060155475e-23)
(-0.200132583 0.01141716144 1.65682149e-23)
(-0.2104622462 -0.03471424249 -8.265259977e-24)
(-0.2137208548 -0.08376563756 3.371862178e-22)
(-0.2078215518 -0.1318756367 0)
(-0.1908238554 -0.1732756158 2.420919629e-22)
(-0.1616335753 -0.2002593417 5.774790687e-24)
(-0.1211662701 -0.2040121729 -5.8609099e-24)
(-0.07384989857 -0.1772119973 1.548452818e-22)
(-0.02971786846 -0.1188642338 -5.435474909e-24)
(-0.002179545111 -0.04005398779 0)
(-0.0002117198228 0.04671640084 0)
(-0.01125001064 0.1105498144 0)
(-0.02815624422 0.1497355028 -5.022762657e-22)
(-0.04874479278 0.1701517632 -1.880999748e-23)
(-0.07100086626 0.1766257176 2.038380017e-23)
(-0.093994515 0.1724526538 -2.014312499e-23)
(-0.1171434301 0.159487101 -2.316884687e-23)
(-0.1400179506 0.1384805098 -3.029825495e-22)
(-0.1621328892 0.1095160724 6.698612132e-23)
(-0.1827959037 0.07245186985 4.513181791e-23)
(-0.2009835556 0.02734928807 -4.577725117e-23)
(-0.2152270263 -0.02508697845 0)
(-0.2235562214 -0.08298351486 -7.839702347e-23)
(-0.2234632201 -0.1427257348 0)
(-0.2120679439 -0.1981820901 -3.739565881e-22)
(-0.1867434557 -0.2400773718 5.244960704e-22)
(-0.1464438311 -0.2560773435 0)
(-0.0939456778 -0.2331209525 -1.493998763e-22)
(-0.04022001016 -0.1639613674 1.93755569e-22)
(-0.003201100284 -0.05861063189 -3.411535206e-22)
(-0.0002015409092 0.05297585176 0)
(-0.01067261856 0.1248172406 9.182876028e-22)
(-0.02628446628 0.1687424605 -2.440687301e-23)
(-0.04501107754 0.1916455167 9.193346636e-22)
(-0.06494597446 0.1992921081 -2.512088607e-23)
(-0.08536628491 0.1956104343 2.838846042e-23)
(-0.1059305645 0.1827886864 -2.812932086e-23)
(-0.1264924184 0.1616583523 -1.660918756e-23)
(-0.1468996842 0.1321762307 -5.260231598e-22)
(-0.1668458151 0.09389646643 -8.906632642e-24)
(-0.1857303017 0.04640576254 9.660201283e-24)
(-0.2024781678 -0.01023784837 3.313079342e-22)
(-0.2154154606 -0.07499820467 -5.820743744e-22)
(-0.2220209711 -0.1450311856 0)
(-0.2188032103 -0.2146760639 8.887330797e-22)
(-0.2016257526 -0.2740016446 -4.94089294e-22)
(-0.1668639196 -0.3075811981 -1.572225164e-23)
(-0.1140220097 -0.2953811934 0)
(-0.0528848204 -0.2195802594 -1.890189302e-22)
(-0.0047491882 -0.08377278007 3.360592891e-22)
(-0.000364198556 0.05902317829 1.551011409e-23)
(-0.01049573929 0.1379881517 -8.76420335e-22)
(-0.02441389489 0.1856804123 -1.157059944e-21)
(-0.04026724353 0.2101384775 -8.628995091e-22)
(-0.05630729511 0.2182348935 0)
(-0.07214856439 0.2146190293 3.51380783e-23)
(-0.08779221505 0.2018791976 -7.294871308e-23)
(-0.103456278 0.1810005625 5.867887861e-23)
(-0.1193983862 0.1518997251 3.021368194e-22)
(-0.1357931535 0.1139150572 -1.128196229e-23)
(-0.1526082309 0.06621424928 0)
(-0.1694521364 0.008177202771 -3.603931579e-22)
(-0.1852760588 -0.06015987797 7.51567187e-22)
(-0.198044851 -0.1372747024 8.831708109e-22)
(-0.204354626 -0.2189261903 -5.296631023e-22)
(-0.1990977612 -0.295971293 5.162693209e-22)
(-0.1760605331 -0.3514072608 1.07823482e-23)
(-0.1300890634 -0.3584150803 -1.09554989e-23)
(-0.06688803325 -0.2843276526 -8.21527454e-23)
(-0.007083319982 -0.1169964423 0)
(-0.0009095776192 0.06540041598 -1.911487987e-23)
(-0.01167591705 0.1502816423 -1.326966309e-21)
(-0.02388882018 0.2000659576 1.094238285e-21)
(-0.03601340325 0.2244216985 6.734934486e-22)
(-0.04657308601 0.2316588263 6.014635657e-22)
(-0.05577038322 0.2272393715 6.643961101e-22)
(-0.06411245547 0.2141774893 -4.458680119e-23)
(-0.07227561434 0.1936494394 -3.461338912e-22)
(-0.08096972736 0.1656028325 2.152163375e-22)
(-0.09087192103 0.1292707357 0)
(-0.1025547431 0.08353082445 0)
(-0.1163622136 0.0272001066 2.655397748e-22)
(-0.132158954 -0.04062006098 8.194325853e-23)
(-0.1489252301 -0.1200128317 -2.821625121e-22)
(-0.1641284268 -0.2089300699 -5.411273854e-23)
(-0.1727877611 -0.3006992516 1.301952003e-22)
(-0.1670311301 -0.3793329112 -3.400507821e-22)
(-0.1365292438 -0.4136451981 -1.593821925e-23)
(-0.08018250146 -0.3538326214 8.204047276e-23)
(-0.01050762297 -0.1594130574 -6.032156622e-22)
(-0.002260498425 0.07348883555 0)
(-0.01580355652 0.162652178 2.14587567e-21)
(-0.0266504255 0.2117904749 0)
(-0.03422339535 0.2333947285 -1.351808705e-21)
(-0.03759398379 0.237776684 6.184051812e-23)
(-0.03799685092 0.2312553535 -6.193098479e-22)
(-0.03668265718 0.217189902 -4.756286658e-22)
(-0.03489036148 0.19689345 8.301258842e-22)
(-0.03378837724 0.1703342388 -1.885698848e-22)
(-0.03449876261 0.1367221078 0)
(-0.03811572544 0.09479673616 0)
(-0.04564992272 0.04304286558 2.410616633e-23)
(-0.05790804163 -0.02013781265 -6.007200362e-22)
(-0.07514598433 -0.09620650249 -4.309568442e-22)
(-0.09645174905 -0.1855556176 4.637864054e-22)
(-0.1183462611 -0.2853567775 -6.488738464e-22)
(-0.1332715379 -0.3838386539 9.119948956e-23)
(-0.1265350987 -0.4504358719 2.937305713e-23)
(-0.08899154083 -0.4198536381 5.660443007e-22)
(-0.01526917933 -0.2111719734 6.02078937e-22)
(-0.005180899548 0.08598045981 0)
(-0.02525550717 0.1766291196 1.465579333e-22)
(-0.03483407978 0.220596156 -4.917146476e-23)
(-0.03640013823 0.2354859356 7.642934078e-22)
(-0.03018482951 0.234340676 -7.005381233e-22)
(-0.01916579288 0.2241603889 4.746482795e-23)
(-0.005615148408 0.208352585 -1.018610143e-22)
(0.008569609852 0.1881241092 -3.389890025e-22)
(0.02179886383 0.1633911272 2.06282351e-22)
(0.03262781662 0.1333242733 0)
(0.03958458728 0.09664086178 0)
(0.04117013411 0.05174056426 -2.902668445e-22)
(0.03578483963 -0.003255398071 0)
(0.0219818481 -0.07058360867 -5.512188471e-22)
(-0.001264844901 -0.1525735509 -1.492377103e-23)
(-0.03310469783 -0.2505949849 2.559742037e-23)
(-0.06909235742 -0.3599341518 2.203144422e-22)
(-0.09227826956 -0.4575424529 4.788078892e-24)
(-0.08718089905 -0.4698129417 -5.789411385e-22)
(-0.02103127147 -0.2698972298 0)
(-0.01111631553 0.1085974975 0)
(-0.04248901881 0.1947151679 -8.848481632e-22)
(-0.04795528941 0.2258195513 -5.411041058e-22)
(-0.03919535921 0.2282135559 4.543818053e-22)
(-0.0187783023 0.218232814 -1.709981865e-24)
(0.007664314902 0.202822036 -4.561051326e-23)
(0.03667993524 0.1847619773 5.6966842e-22)
(0.0658299873 0.1647118219 -2.766891443e-23)
(0.09327131046 0.1423128181 -2.069782394e-22)
(0.1173891622 0.116627494 3.142214486e-23)
(0.13654617 0.08641143893 -3.425918112e-23)
(0.1489669278 0.05017669022 -3.690595052e-23)
(0.1525275789 0.00615916679 3.205634342e-22)
(0.1449367038 -0.04796127041 6.119607792e-22)
(0.1235159796 -0.115305291 -5.101173067e-22)
(0.08633533475 -0.2004195649 -1.616059286e-22)
(0.03199089324 -0.3067806591 1.53130703e-22)
(-0.02362123133 -0.4239837145 7.293652069e-23)
(-0.06492413044 -0.487161279 1.913291561e-21)
(-0.02509971702 -0.3291544745 2.954991404e-21)
(-0.02004680472 0.1460727403 -4.390208561e-23)
(-0.06416406266 0.2112955859 4.417381317e-23)
(-0.05070230596 0.2177300483 1.000188836e-21)
(-0.01934097349 0.2014679989 -8.270550278e-24)
(0.02414464971 0.1809076185 0)
(0.0715412213 0.1606933354 4.363723916e-23)
(0.1190703415 0.1416495499 -2.273852837e-22)
(0.1644767342 0.1233181826 -9.027960506e-23)
(0.2062251169 0.1048117297 3.680735845e-23)
(0.2429643033 0.08507140099 -1.701655504e-23)
(0.2732207589 0.06296147678 3.429971421e-23)
(0.2952536118 0.03726293815 -6.592683042e-23)
(0.3066971068 0.006535068055 -9.303907991e-23)
(0.304973832 -0.03087770061 1.517044648e-22)
(0.2863936255 -0.07786290983 0)
(0.2470568089 -0.139930037 1.505612425e-22)
(0.1810922239 -0.2266299753 2.56001384e-22)
(0.09604450266 -0.3443894948 0)
(-0.006697615788 -0.4552210219 -3.675634741e-21)
(-0.019224082 -0.3777537589 -2.892620879e-21)
(-0.02591951322 0.2276828798 -9.514205062e-22)
(-0.03998324628 0.2238216527 -1.388976761e-22)
(0.03656136877 0.1810585361 -2.335582534e-22)
(0.1090503045 0.1451059095 -1.19374242e-22)
(0.1817191195 0.11724455 -4.295828061e-23)
(0.2490090737 0.09627907677 9.783186845e-23)
(0.3100336709 0.08002510456 -1.408592923e-22)
(0.3646209342 0.06656815367 1.297175882e-22)
(0.4126252504 0.05449178911 -8.620123901e-23)
(0.4536250311 0.04270894934 1.132190337e-25)
(0.4867878735 0.03032298416 1.527742246e-23)
(0.5107451375 0.01652901846 7.997207529e-23)
(0.5236597466 0.0005365141872 -1.81112445e-22)
(0.5231798021 -0.0186337327 -1.617146792e-22)
(0.5052323426 -0.04286478975 -4.262957397e-23)
(0.4658715086 -0.07633231198 0)
(0.3952696501 -0.1286089385 -1.846477002e-22)
(0.291607105 -0.2208468098 8.14876302e-22)
(0.1197455107 -0.3525016903 1.631601521e-21)
(0.02670547261 -0.3775497979 2.172655882e-21)
(0.2142894469 0.1347447206 9.864990108e-22)
(0.2776311184 0.09870503536 0)
(0.4316592287 0.05810414817 -2.594321745e-22)
(0.5304749344 0.03846264955 -1.741667415e-22)
(0.6016965751 0.02623419123 0)
(0.6571198962 0.01831923485 -6.009095655e-23)
(0.7015213608 0.01313600854 6.378005086e-23)
(0.7376042506 0.00954212637 -1.80015737e-23)
(0.7669368423 0.006804463583 2.885975464e-23)
(0.7902106691 0.004464743829 2.31503406e-23)
(0.8074555016 0.002221319751 0)
(0.818262136 -0.0001500751018 -2.873033885e-23)
(0.8216499719 -0.00272384841 0)
(0.8162394199 -0.00571266874 2.738152574e-23)
(0.799133315 -0.009611382881 1.421693361e-23)
(0.7679986346 -0.01500255108 -5.799402346e-23)
(0.7106555755 -0.02502519954 -2.535660696e-22)
(0.623518398 -0.04204285407 -6.918101441e-22)
(0.423009102 -0.0918296808 0)
(0.2705674689 -0.1524021841 -2.119483748e-21)
)
;

boundaryField
{
    movingWall
    {
        type            calculated;
        value           uniform (1 0 0);
    }
    fixedWalls
    {
        type            calculated;
        value           uniform (0 0 0);
    }
    frontAndBack
    {
        type            empty;
    }
}


// ************************************************************************* //
