/*--------------------------------*- C++ -*----------------------------------*\
  =========                 |
  \\      /  F ield         | OpenFOAM: The Open Source CFD Toolbox
   \\    /   O peration     | Website:  https://openfoam.org
    \\  /    A nd           | Version:  13
     \\/     M anipulation  |
\*---------------------------------------------------------------------------*/
FoamFile
{
    format      ascii;
    class       vectorField;
    location    "45";
    object      U_all;
}
// * * * * * * * * * * * * * * * * * * * * * * * * * * * * * * * * * * * * * //


400
(
(1.100734214e-05 -3.78308557e-05 0)
(-0.0006660935441 0.0004130428884 -1.55136758e-23)
(-0.002185373706 0.0009203938521 0)
(-0.004047832437 0.001312781615 0)
(-0.005971868185 0.00153506654 6.845745951e-25)
(-0.007762782989 0.001569847799 4.150939699e-24)
(-0.009284544966 0.001423562425 -7.374054973e-24)
(-0.01043594171 0.001119721773 7.53009257e-24)
(-0.01113681549 0.0006960819884 -2.09532781e-25)
(-0.01132711297 0.0002030784973 -3.994572467e-24)
(-0.01097177363 -0.0003002318352 5.803548931e-24)
(-0.01007232786 -0.0007475150229 -5.929538969e-23)
(-0.008679879156 -0.001075562493 -6.552660919e-23)
(-0.006902851925 -0.001233045133 -7.784244918e-23)
(-0.004910737656 -0.001192639387 4.573538243e-24)
(-0.002927232624 -0.0009619206891 -4.13788255e-24)
(-0.001205301124 -0.0005912112146 -1.998729206e-22)
(-1.907127722e-05 -0.0001698820892 0)
(0.0005181511648 0.0001720866449 1.509625389e-25)
(0.0002227500197 0.0003059797241 -2.55346853e-24)
(-0.0002633621395 0.0008289713879 1.382923585e-25)
(-0.002703303927 0.003383842592 1.561165761e-23)
(-0.006907275369 0.005604501537 1.555463762e-25)
(-0.01195231931 0.007008208209 -8.49598938e-25)
(-0.01713504554 0.007553777533 1.162217828e-24)
(-0.02197535619 0.007294201262 1.306943688e-23)
(-0.02611076192 0.006321894708 1.387892048e-24)
(-0.02926564722 0.004754192319 -7.281821415e-24)
(-0.03122672964 0.002737150612 1.015248677e-23)
(-0.03184201017 0.0004524054551 4.509905059e-24)
(-0.03102761586 -0.001884143907 -6.31881458e-24)
(-0.02879316812 -0.004023028257 2.961797383e-24)
(-0.02527138486 -0.005708353735 3.895524139e-23)
(-0.02073194896 -0.006707409569 -1.954754335e-24)
(-0.01558962589 -0.006854140532 3.754446244e-24)
(-0.01038513409 -0.006097464333 -9.740821589e-23)
(-0.005730273809 -0.004546185873 9.637533818e-23)
(-0.002233369859 -0.002507417807 -3.961159215e-25)
(-0.000181778672 -0.0005023707378 4.061060373e-25)
(8.343321917e-05 0.0006099277072 0)
(-0.0004188233474 0.00293508073 -2.910355082e-25)
(-0.004647874454 0.008804016653 1.701981501e-23)
(-0.01137195981 0.01324042472 -8.284144938e-24)
(-0.01932729056 0.01579204132 -2.075610075e-25)
(-0.02747411756 0.01653000114 2.03907019e-25)
(-0.03511778991 0.01564441856 6.798125982e-27)
(-0.04171345028 0.01335997818 -1.220389852e-24)
(-0.04683571885 0.009919772366 -4.551200169e-25)
(-0.05014989006 0.005602433009 -1.063067412e-23)
(-0.05141231934 0.0007444190727 0)
(-0.05047793305 -0.004241782263 0)
(-0.04733706375 -0.008887188336 2.67098267e-23)
(-0.04215928009 -0.01268176999 2.812999743e-23)
(-0.03531437452 -0.01513605178 -1.646147433e-24)
(-0.02738996201 -0.01586189529 4.845804916e-23)
(-0.01917005844 -0.01467334103 9.419128674e-23)
(-0.01156090842 -0.0116936027 3.975519324e-23)
(-0.00546541487 -0.007450741514 4.141516605e-25)
(-0.001451102969 -0.002936041756 1.073900256e-25)
(-9.072935362e-05 0.0002258793284 0)
(-0.0005024631573 0.006045350966 -4.248803126e-23)
(-0.006402740239 0.01637075793 -1.692204846e-23)
(-0.0155350252 0.02355933819 8.210985614e-24)
(-0.02627912113 0.0274416276 0)
(-0.03728746812 0.02832102237 0)
(-0.0476903758 0.02658772592 0)
(-0.05679663205 0.02263120451 -4.465514972e-26)
(-0.06405384268 0.01683609447 -2.136964934e-24)
(-0.06901081748 0.009622185008 0)
(-0.07130828092 0.001491050269 1.635387919e-24)
(-0.070708537 -0.006936504924 2.80274174e-25)
(-0.06713039566 -0.01493019047 -2.810589351e-25)
(-0.06069905712 -0.02166728399 0)
(-0.05180750551 -0.02631605977 4.133238543e-23)
(-0.04114991596 -0.02816071044 -4.681519235e-23)
(-0.02971970135 -0.02677372344 -2.761860533e-23)
(-0.01873716716 -0.02221530566 -3.960663157e-23)
(-0.009488030468 -0.01521922161 7.795836153e-25)
(-0.002976882577 -0.007298193514 9.790459229e-23)
(-0.0002318813304 -0.0008661660881 0)
(-0.0005316128499 0.01009501624 4.269463586e-23)
(-0.007983592695 0.02595219716 4.785468129e-25)
(-0.01939687577 0.03642883139 -4.676169602e-25)
(-0.03282382611 0.04185521046 0)
(-0.04664689171 0.04289485492 7.782933977e-25)
(-0.05985229827 0.04020074198 -7.675020767e-25)
(-0.07163291549 0.03434741773 3.67229451e-23)
(-0.08132751462 0.02585664181 1.848231202e-23)
(-0.0883660134 0.01527298448 6.238929151e-24)
(-0.09225469835 0.003246147789 -1.637293168e-24)
(-0.09260380077 -0.00940783247 0)
(-0.08917555752 -0.02167478141 4.370592532e-25)
(-0.08195979398 -0.0323674529 1.00900531e-23)
(-0.07126885456 -0.04021250444 -4.349268821e-23)
(-0.05782018719 -0.04402046663 1.932871164e-24)
(-0.04278582843 -0.04294829667 4.21713984e-23)
(-0.02775450297 -0.03683347172 -3.841533071e-25)
(-0.014550624 -0.02652721106 0)
(-0.004859463558 -0.01408454485 5.436551569e-23)
(-0.0003641490623 -0.002846952434 -2.56508795e-22)
(-0.0005272206679 0.01499927767 9.841543096e-23)
(-0.00937792491 0.03739022384 -4.907786294e-25)
(-0.02288182805 0.05170223232 0)
(-0.03883043666 0.05894183454 0)
(-0.05538656994 0.06025574967 -8.732139554e-23)
(-0.07142876912 0.05661901334 -8.499097573e-23)
(-0.08606654371 0.04880168939 -4.067550381e-23)
(-0.09855086213 0.03743980601 -1.504377367e-23)
(-0.1081945337 0.02315984016 -5.368961889e-24)
(-0.1143444762 0.006709679702 -8.175025529e-24)
(-0.1164046247 -0.01093292129 6.601150324e-24)
(-0.1138937439 -0.02848945077 8.826713528e-24)
(-0.1065487009 -0.04437046382 -1.892318497e-23)
(-0.09446804174 -0.05675333988 4.607494262e-24)
(-0.07826856866 -0.0637829896 0)
(-0.05922895327 -0.06393495742 -1.572827081e-23)
(-0.03933981819 -0.05653816566 -2.4301972e-26)
(-0.0211418879 -0.04235809304 0)
(-0.007318702809 -0.02398229477 -1.52065761e-22)
(-0.0005216165547 -0.005925544939 6.056289849e-22)
(-0.0004990821346 0.02064574671 -9.774494827e-23)
(-0.01052950988 0.05045438317 2.831985632e-22)
(-0.02582957461 0.069125119 1.526862477e-22)
(-0.04402138407 0.07849258173 3.619291009e-24)
(-0.0631073937 0.08029476718 -7.3193578e-23)
(-0.08190405327 0.07588043201 9.043554126e-23)
(-0.09947763902 0.06621690904 -3.590220871e-24)
(-0.1150227395 0.05201695173 -1.729174165e-24)
(-0.1277519197 0.03392358525 2.524167401e-24)
(-0.1368472623 0.01270233199 7.382657978e-24)
(-0.1414710553 -0.01058782317 -6.500897048e-24)
(-0.1408248218 -0.03446024368 -9.788137668e-24)
(-0.1342746003 -0.05692771747 -3.261739372e-23)
(-0.1215450263 -0.07553316326 -3.661470889e-23)
(-0.1029672665 -0.08754260747 5.645911831e-25)
(-0.07976369876 -0.09039209899 0)
(-0.0542668242 -0.08244513972 0)
(-0.0298716088 -0.06397737025 -2.90607738e-24)
(-0.010662851 -0.03798794813 2.970526891e-24)
(-0.0007350934243 -0.01050089541 1.027871591e-22)
(-0.0004479167483 0.02687251236 0)
(-0.01134923272 0.06480757762 2.001984495e-22)
(-0.02801599723 0.08829617495 8.962054573e-23)
(-0.04799857427 0.1001234971 0)
(-0.06920602149 0.1027076578 1.569887446e-22)
(-0.09044373415 0.09781578862 0)
(-0.1107831705 0.08661103241 -1.428390733e-22)
(-0.1294093787 0.06983950501 6.515572857e-24)
(-0.1454771658 0.04808232265 0)
(-0.1580351838 0.02201755586 0)
(-0.1660133488 -0.007334439842 -1.37441524e-24)
(-0.1682671597 -0.03838839741 -9.316795484e-25)
(-0.1637064739 -0.06883975869 1.491983218e-22)
(-0.1515208797 -0.09558275795 -4.70464067e-23)
(-0.1315134578 -0.1148298668 -2.560975751e-24)
(-0.1045596087 -0.1225703427 1.534735098e-24)
(-0.07309349913 -0.1155517984 -1.558944442e-24)
(-0.04135021457 -0.09283115732 0)
(-0.01525230233 -0.05740767755 3.203820133e-24)
(-0.001044308798 -0.0171471455 -1.012916254e-21)
(-0.0003744665398 0.03346304548 0)
(-0.01175006077 0.07998918947 -1.1282938e-22)
(-0.02920707978 0.1086390973 -6.191158306e-22)
(-0.05031745116 0.1232234021 -3.755311171e-22)
(-0.0729631759 0.1269097061 0)
(-0.09598960389 0.1219255661 4.119460554e-22)
(-0.1185273505 0.109634866 1.260927106e-22)
(-0.1398146443 0.09078245976 -5.581843388e-24)
(-0.1590221574 0.06581393202 5.554216262e-24)
(-0.1751461029 0.03520881079 0)
(-0.1869560015 -0.0001967476602 2.912135195e-23)
(-0.1930172686 -0.03889754395 4.695849322e-24)
(-0.1917809955 -0.07843888582 -1.076811265e-22)
(-0.1817874477 -0.1151865384 8.004226741e-23)
(-0.1620570468 -0.1442599475 -2.419750626e-22)
(-0.1327062023 -0.1598548644 0)
(-0.09577888271 -0.1563112904 0)
(-0.0560163308 -0.13029811 0)
(-0.0214785912 -0.08381135233 0)
(-0.001500384417 -0.02665516364 5.572126726e-22)
(-0.0002873897225 0.04016077767 0)
(-0.01169359586 0.0954361168 -3.493021416e-22)
(-0.02924438293 0.1294073656 8.932810413e-22)
(-0.05060947343 0.1469299201 3.617183324e-22)
(-0.07370082752 0.1519748704 0)
(-0.09745151257 0.1472757987 -3.862558139e-22)
(-0.1211069849 0.1344191968 -3.174432488e-23)
(-0.1440324797 0.1141393329 3.333107025e-22)
(-0.1655143246 0.08670006638 1.769476015e-22)
(-0.1846248533 0.05229123449 -4.060155394e-23)
(-0.2001325825 0.01141716095 1.65682138e-23)
(-0.2104622462 -0.03471424271 -8.265260315e-24)
(-0.2137208553 -0.08376563739 3.371862274e-22)
(-0.2078215525 -0.1318756362 0)
(-0.190823856 -0.1732756152 2.420919654e-22)
(-0.1616335756 -0.2002593411 5.774790557e-24)
(-0.1211662702 -0.2040121725 -5.860909766e-24)
(-0.07384989846 -0.1772119972 1.548452764e-22)
(-0.02971786835 -0.1188642338 -5.435474741e-24)
(-0.002179545076 -0.04005398789 0)
(-0.000211719677 0.04671640077 0)
(-0.01125001026 0.1105498141 0)
(-0.02815624392 0.1497355028 -5.022762548e-22)
(-0.0487447929 0.1701517635 -1.880999727e-23)
(-0.07100086677 0.1766257181 2.038380033e-23)
(-0.09399451557 0.1724526542 -2.014312514e-23)
(-0.1171434304 0.1594871011 -2.316884668e-23)
(-0.1400179504 0.1384805096 -3.02982541e-22)
(-0.1621328887 0.1095160719 6.698612274e-23)
(-0.182795903 0.07245186914 4.513181697e-23)
(-0.200983555 0.02734928728 -4.577725112e-23)
(-0.215227026 -0.02508697914 0)
(-0.2235562214 -0.0829835153 -7.839703069e-23)
(-0.2234632204 -0.1427257349 0)
(-0.2120679443 -0.19818209 -3.739565936e-22)
(-0.186743456 -0.2400773716 5.244960755e-22)
(-0.1464438313 -0.2560773432 0)
(-0.09394567789 -0.2331209524 -1.493998711e-22)
(-0.04022001019 -0.1639613674 1.937555659e-22)
(-0.003201100295 -0.05861063185 -3.411535171e-22)
(-0.0002015408418 0.05297585187 0)
(-0.01067261822 0.1248172406 9.182876092e-22)
(-0.02628446579 0.1687424605 -2.44068733e-23)
(-0.04501107739 0.1916455169 9.19334669e-22)
(-0.06494597477 0.1992921085 -2.512088611e-23)
(-0.08536628549 0.1956104349 2.83884606e-23)
(-0.1059305651 0.182788687 -2.812932103e-23)
(-0.1264924186 0.1616583526 -1.660918748e-23)
(-0.1468996841 0.1321762307 -5.26023155e-22)
(-0.1668458147 0.09389646596 -8.90663253e-24)
(-0.1857303012 0.04640576182 9.660201177e-24)
(-0.2024781674 -0.01023784914 3.313079316e-22)
(-0.2154154604 -0.07499820532 -5.820743759e-22)
(-0.2220209711 -0.145031186 0)
(-0.2188032103 -0.214676064 8.887330891e-22)
(-0.2016257528 -0.2740016446 -4.940892987e-22)
(-0.1668639198 -0.307581198 -1.572225179e-23)
(-0.1140220099 -0.2953811933 0)
(-0.05288482048 -0.2195802593 -1.890189272e-22)
(-0.004749188222 -0.08377277997 3.360592857e-22)
(-0.0003641985053 0.0590231783 1.551011399e-23)
(-0.01049573897 0.1379881518 -8.764203408e-22)
(-0.02441389439 0.1856804123 -1.157059949e-21)
(-0.04026724326 0.2101384775 -8.628995142e-22)
(-0.0563072952 0.2182348936 0)
(-0.07214856478 0.2146190296 3.513807855e-23)
(-0.08779221559 0.2018791981 -7.294871361e-23)
(-0.1034562785 0.1810005631 5.867887898e-23)
(-0.1193983864 0.1518997254 3.021368184e-22)
(-0.1357931535 0.1139150572 -1.128196228e-23)
(-0.1526082306 0.06621424899 0)
(-0.169452136 0.008177202312 -3.603931551e-22)
(-0.1852760585 -0.06015987845 7.515671843e-22)
(-0.1980448508 -0.1372747028 8.831708095e-22)
(-0.2043546259 -0.2189261906 -5.296631064e-22)
(-0.1990977611 -0.2959712932 5.162693232e-22)
(-0.1760605332 -0.3514072609 1.078234832e-23)
(-0.1300890635 -0.3584150803 -1.095549902e-23)
(-0.06688803329 -0.2843276526 -8.215274527e-23)
(-0.007083319992 -0.1169964422 0)
(-0.0009095775012 0.06540041585 -1.91148797e-23)
(-0.01167591668 0.1502816423 -1.326966299e-21)
(-0.02388881978 0.2000659575 1.094238289e-21)
(-0.03601340304 0.2244216983 6.734934475e-22)
(-0.046573086 0.2316588261 6.014635674e-22)
(-0.05577038337 0.2272393714 6.643961142e-22)
(-0.0641124558 0.2141774895 -4.458680147e-23)
(-0.0722756148 0.1936494399 -3.461338929e-22)
(-0.0809697278 0.165602833 2.152163382e-22)
(-0.09087192129 0.1292707362 0)
(-0.1025547431 0.08353082471 0)
(-0.1163622134 0.02720010666 2.655397737e-22)
(-0.1321589537 -0.04062006106 8.194325849e-23)
(-0.1489252299 -0.1200128319 -2.821625125e-22)
(-0.1641284267 -0.2089300701 -5.411273842e-23)
(-0.172787761 -0.3006992517 1.301951982e-22)
(-0.16703113 -0.3793329113 -3.400507829e-22)
(-0.1365292438 -0.4136451981 -1.593821848e-23)
(-0.08018250146 -0.3538326214 8.204047263e-23)
(-0.01050762296 -0.1594130573 -6.032156616e-22)
(-0.002260498269 0.07348883543 0)
(-0.01580355616 0.1626521779 2.145875657e-21)
(-0.02665042521 0.2117904746 0)
(-0.03422339524 0.2333947282 -1.351808696e-21)
(-0.03759398376 0.2377766836 6.184051102e-23)
(-0.03799685087 0.2312553532 -6.193098517e-22)
(-0.03668265719 0.217189902 -4.756286679e-22)
(-0.03489036164 0.1968934502 8.301258885e-22)
(-0.03378837753 0.1703342393 -1.885698854e-22)
(-0.03449876289 0.1367221084 0)
(-0.03811572561 0.09479673675 0)
(-0.04564992275 0.04304286603 2.410616708e-23)
(-0.05790804154 -0.02013781239 -6.007200337e-22)
(-0.0751459842 -0.0962065024 -4.309568428e-22)
(-0.09645174893 -0.1855556176 4.637864043e-22)
(-0.118346261 -0.2853567775 -6.488738464e-22)
(-0.1332715378 -0.3838386539 9.119949081e-23)
(-0.1265350986 -0.450435872 2.937305635e-23)
(-0.0889915408 -0.4198536381 5.660443006e-22)
(-0.01526917932 -0.2111719734 6.020789364e-22)
(-0.005180899454 0.08598045989 0)
(-0.02525550701 0.1766291195 1.465579374e-22)
(-0.03483407963 0.2205961557 -4.917146433e-23)
(-0.03640013813 0.2354859352 7.642933996e-22)
(-0.03018482941 0.2343406757 -7.005381181e-22)
(-0.01916579269 0.2241603887 4.746482791e-23)
(-0.005615148188 0.2083525849 -1.018610124e-22)
(0.008569609984 0.1881241092 -3.389890042e-22)
(0.0217988638 0.1633911275 2.06282352e-22)
(0.03262781647 0.1333242737 0)
(0.03958458708 0.09664086224 0)
(0.04117013393 0.05174056467 -2.902668442e-22)
(0.03578483951 -0.003255397775 0)
(0.02198184806 -0.0705836085 -5.512188467e-22)
(-0.00126484489 -0.1525735508 -1.492377059e-23)
(-0.03310469779 -0.2505949849 2.55974203e-23)
(-0.06909235736 -0.3599341518 2.203144417e-22)
(-0.0922782695 -0.4575424529 4.788078936e-24)
(-0.08718089902 -0.4698129417 -5.789411384e-22)
(-0.02103127147 -0.2698972298 0)
(-0.01111631552 0.1085974977 0)
(-0.04248901889 0.194715168 -8.848481654e-22)
(-0.04795528945 0.2258195513 -5.411041081e-22)
(-0.03919535909 0.2282135558 4.543818042e-22)
(-0.01877830208 0.2182328138 -1.709981999e-24)
(0.007664315205 0.2028220358 -4.561051268e-23)
(0.03667993554 0.1847619771 5.696684185e-22)
(0.06582998753 0.1647118217 -2.766891452e-23)
(0.09327131054 0.142312818 -2.069782404e-22)
(0.1173891621 0.1166274939 3.142214501e-23)
(0.1365461698 0.08641143891 -3.425918127e-23)
(0.1489669276 0.05017669025 -3.690595061e-23)
(0.1525275787 0.006159166851 3.205634347e-22)
(0.1449367037 -0.04796127035 6.119607788e-22)
(0.1235159796 -0.1153052909 -5.10117306e-22)
(0.08633533474 -0.2004195649 -1.616059283e-22)
(0.03199089327 -0.3067806591 1.531307034e-22)
(-0.02362123129 -0.4239837145 7.293652072e-23)
(-0.06492413044 -0.487161279 1.913291561e-21)
(-0.02509971702 -0.3291544745 2.954991404e-21)
(-0.02004680469 0.1460727405 -4.39020856e-23)
(-0.06416406276 0.2112955862 4.417381316e-23)
(-0.05070230611 0.2177300489 1.000188839e-21)
(-0.01934097352 0.2014679992 -8.270548892e-24)
(0.02414464977 0.1809076185 0)
(0.07154122149 0.1606933352 4.363723893e-23)
(0.1190703417 0.1416495495 -2.273852826e-22)
(0.1644767344 0.1233181821 -9.027960475e-23)
(0.206225117 0.1048117291 3.680735834e-23)
(0.2429643033 0.08507140048 -1.701655515e-23)
(0.2732207588 0.06296147636 3.429971436e-23)
(0.2952536117 0.03726293787 -6.592683052e-23)
(0.3066971067 0.006535067907 -9.303908013e-23)
(0.3049738319 -0.03087770064 1.517044649e-22)
(0.2863936255 -0.0778629098 0)
(0.2470568088 -0.139930037 1.505612422e-22)
(0.1810922239 -0.2266299752 2.560013839e-22)
(0.09604450266 -0.3443894948 0)
(-0.006697615791 -0.4552210219 -3.675634741e-21)
(-0.01922408201 -0.3777537589 -2.892620879e-21)
(-0.02591951314 0.2276828799 -9.514205082e-22)
(-0.03998324602 0.2238216529 -1.388976759e-22)
(0.03656136874 0.1810585365 -2.335582542e-22)
(0.1090503041 0.1451059098 -1.193742419e-22)
(0.1817191192 0.1172445501 -4.295828066e-23)
(0.2490090736 0.09627907662 9.783186833e-23)
(0.3100336709 0.0800251042 -1.408592917e-22)
(0.3646209342 0.06656815317 1.297175877e-22)
(0.4126252505 0.05449178858 -8.620123872e-23)
(0.4536250311 0.04270894887 1.132190586e-25)
(0.4867878736 0.0303229838 1.527742244e-23)
(0.5107451376 0.01652901823 7.997207535e-23)
(0.5236597467 0.0005365140772 -1.811124452e-22)
(0.5231798022 -0.01863373272 -1.617146794e-22)
(0.5052323426 -0.04286478973 -4.262957406e-23)
(0.4658715086 -0.07633231197 0)
(0.3952696501 -0.1286089385 -1.846477004e-22)
(0.291607105 -0.2208468098 8.148763021e-22)
(0.1197455106 -0.3525016903 1.631601521e-21)
(0.02670547261 -0.377549798 2.172655882e-21)
(0.214289447 0.1347447206 9.86499012e-22)
(0.2776311186 0.09870503545 0)
(0.4316592286 0.05810414813 -2.594321752e-22)
(0.5304749341 0.03846264956 -1.741667419e-22)
(0.6016965747 0.02623419122 0)
(0.6571198959 0.01831923477 -6.009095652e-23)
(0.7015213606 0.01313600839 6.378005058e-23)
(0.7376042506 0.009542126187 -1.800157354e-23)
(0.7669368424 0.006804463402 2.885975444e-23)
(0.7902106693 0.004464743683 2.315034046e-23)
(0.8074555018 0.002221319653 0)
(0.8182621362 -0.0001500751513 -2.873033881e-23)
(0.8216499721 -0.002723848421 0)
(0.81623942 -0.005712668736 2.738152577e-23)
(0.799133315 -0.009611382878 1.421693364e-23)
(0.7679986346 -0.01500255108 -5.799402346e-23)
(0.7106555755 -0.02502519954 -2.535660696e-22)
(0.623518398 -0.04204285407 -6.918101442e-22)
(0.423009102 -0.0918296808 0)
(0.2705674689 -0.1524021841 -2.119483748e-21)
)


// ************************************************************************* //
