/*--------------------------------*- C++ -*----------------------------------*\
  =========                 |
  \\      /  F ield         | OpenFOAM: The Open Source CFD Toolbox
   \\    /   O peration     | Website:  https://openfoam.org
    \\  /    A nd           | Version:  13
     \\/     M anipulation  |
\*---------------------------------------------------------------------------*/
FoamFile
{
    format      ascii;
    class       vectorField;
    location    "23.35";
    object      U_all;
}
// * * * * * * * * * * * * * * * * * * * * * * * * * * * * * * * * * * * * * //


400
(
(1.085504064e-05 -3.790787119e-05 0)
(-0.0006662150953 0.0004130028342 -1.542138864e-23)
(-0.00218524867 0.0009203134598 0)
(-0.004047500049 0.001312656406 0)
(-0.005971330937 0.001534917474 6.830219099e-25)
(-0.007762067475 0.001569696767 4.153127482e-24)
(-0.009283692219 0.001423429671 -7.324977108e-24)
(-0.01043500323 0.001119622545 7.580626801e-24)
(-0.01113585118 0.0006960253752 -2.099386068e-25)
(-0.01132618666 0.0002030670092 -4.000718935e-24)
(-0.01097094824 -0.000300200866 5.810184321e-24)
(-0.01007165755 -0.0007474520979 -5.934887807e-23)
(-0.008679400213 -0.001075483897 -6.558269016e-23)
(-0.006902578039 -0.001232971164 -7.790262599e-23)
(-0.004910656432 -0.001192589787 4.577419141e-24)
(-0.002927305072 -0.0009619092822 -4.142010223e-24)
(-0.001205468315 -0.0005912408506 -2.00153204e-22)
(-1.92525009e-05 -0.0001699414565 0)
(0.0005180219181 0.0001720145229 1.521869683e-25)
(0.0002227174662 0.0003059321477 -2.712721406e-24)
(-0.0002634061649 0.0008287873107 1.389940781e-25)
(-0.002703112187 0.003383464882 1.551780519e-23)
(-0.006906599488 0.005603889987 1.541041839e-25)
(-0.01195107402 0.007007450401 -8.46527613e-25)
(-0.01713322804 0.007552975456 1.157664128e-24)
(-0.02197303433 0.007293454283 1.30196587e-23)
(-0.02610805218 0.006321288601 1.437360063e-24)
(-0.02926269688 0.004753790813 -7.331093827e-24)
(-0.03122370348 0.002736989493 1.017735411e-23)
(-0.03183907576 0.0004524886326 4.517013442e-24)
(-0.0310249346 -0.001883830297 -6.32602936e-24)
(-0.02879088062 -0.004022539509 2.960190548e-24)
(-0.02526959014 -0.005707767299 3.898363371e-23)
(-0.02073069316 -0.006706818156 -1.956708346e-24)
(-0.01558889227 -0.006853638538 3.758502187e-24)
(-0.01038484217 -0.00609712969 -9.755299284e-23)
(-0.005730290428 -0.004546060858 9.652310546e-23)
(-0.002233527126 -0.002507489164 -3.985754079e-25)
(-0.0001819227369 -0.0005025656592 4.086275411e-25)
(8.341346705e-05 0.0006097721789 0)
(-0.0004187872051 0.00293474703 -2.917007974e-25)
(-0.004647374777 0.00880301715 1.710907184e-23)
(-0.01137066929 0.01323891272 -8.196457589e-24)
(-0.01932507836 0.01579025933 -2.060669747e-25)
(-0.02747099013 0.01652818603 2.024393148e-25)
(-0.03511385376 0.01564277996 8.355856635e-27)
(-0.04170888553 0.01335868827 -1.268325879e-24)
(-0.04683075493 0.009918957491 -4.582450807e-25)
(-0.05014478412 0.00560216581 -1.065678886e-23)
(-0.05140731805 0.0007447137393 0)
(-0.05047327988 -0.004240986636 0)
(-0.04733298014 -0.008885997351 2.673959145e-23)
(-0.04215591851 -0.01268033946 2.815887545e-23)
(-0.03531182011 -0.0151345694 -1.648175665e-24)
(-0.02738821762 -0.01586055667 4.852847514e-23)
(-0.01916903992 -0.01467231858 9.433175937e-23)
(-0.01156045436 -0.01169300916 3.99069173e-23)
(-0.005465309731 -0.007450591553 4.191386701e-25)
(-0.001451142469 -0.002936219784 1.048000383e-25)
(-9.072766368e-05 0.0002256527902 0)
(-0.0005024010081 0.006044655011 -4.256890663e-23)
(-0.006401970523 0.01636883865 -1.7011155e-23)
(-0.01553316072 0.02355658407 8.123349262e-24)
(-0.02627600615 0.02743848277 0)
(-0.0372831268 0.02831789238 0)
(-0.0476849509 0.02658495226 0)
(-0.05679035336 0.02262905562 -4.629067528e-26)
(-0.06404699741 0.01683476084 -2.108010155e-24)
(-0.06900372289 0.009621773576 0)
(-0.07130127355 0.001491579935 1.642685642e-24)
(-0.07070192644 -0.006935124884 2.807367305e-25)
(-0.06712444521 -0.01492812192 -2.815227862e-25)
(-0.06069398473 -0.02166476801 0)
(-0.05180345151 -0.02631339175 4.140041156e-23)
(-0.04114692855 -0.02815820677 -4.688359935e-23)
(-0.02971772697 -0.02677167686 -2.769647877e-23)
(-0.01873605306 -0.02221392977 -3.976081444e-23)
(-0.009487543815 -0.01521858892 7.795014456e-25)
(-0.002976772891 -0.007298178136 9.772841187e-23)
(-0.0002318663672 -0.0008663849268 0)
(-0.0005315420734 0.01009382516 4.277601804e-23)
(-0.007982623616 0.02594911805 4.771199686e-25)
(-0.01939456274 0.03642456212 -4.662227354e-25)
(-0.03281999263 0.04185043576 0)
(-0.04664157505 0.04289017002 7.767444497e-25)
(-0.05984566796 0.040196632 -7.659745793e-25)
(-0.07162523505 0.03434425306 3.666865112e-23)
(-0.08131910811 0.02585467743 1.842442946e-23)
(-0.08835723785 0.01527235776 6.222401259e-24)
(-0.09224592479 0.003246875379 -1.644599387e-24)
(-0.09259538565 -0.00940584434 0)
(-0.08916782379 -0.02167175144 4.380876582e-25)
(-0.08195301767 -0.03236370045 1.012646877e-23)
(-0.07126324154 -0.04020842897 -4.356513887e-23)
(-0.05781585329 -0.04401651157 1.937452324e-24)
(-0.04278278044 -0.04294489501 4.23263473e-23)
(-0.02775262723 -0.03683097155 -3.866538527e-25)
(-0.01454969086 -0.02652578544 0)
(-0.004859172278 -0.01408410351 5.435792423e-23)
(-0.0003641167052 -0.002847062217 -2.563139432e-22)
(-0.0005271563402 0.01499749991 9.832120305e-23)
(-0.009376849642 0.03738582335 -4.900717995e-25)
(-0.02287925751 0.05169627054 0)
(-0.03882617448 0.05893526231 0)
(-0.05538065394 0.06024935944 -8.72655659e-23)
(-0.07142137777 0.05661343351 -8.493357638e-23)
(-0.08605795235 0.04879739017 -4.061577537e-23)
(-0.09854140618 0.03743710602 -1.501490514e-23)
(-0.1081845813 0.02315891043 -5.354318109e-24)
(-0.1143344095 0.00671054633 -8.165652485e-24)
(-0.1163948206 -0.01093037032 6.590920257e-24)
(-0.1138845588 -0.02848546721 8.807566163e-24)
(-0.1065404584 -0.04436542386 -1.891861693e-23)
(-0.09446101366 -0.05674772884 4.526625395e-24)
(-0.07826295085 -0.06377736968 0)
(-0.05922483668 -0.06392991192 -1.581020079e-23)
(-0.03933715859 -0.05653421076 -2.167054974e-26)
(-0.02114048595 -0.04235555737 0)
(-0.007318221113 -0.02398118984 -1.518798857e-22)
(-0.0005215672687 -0.005925456162 6.052270302e-22)
(-0.0004990352209 0.02064334931 -9.765159868e-23)
(-0.01052843842 0.0504486084 2.830854675e-22)
(-0.0258269864 0.06911741175 1.526282783e-22)
(-0.04401706607 0.07848416729 3.617471363e-24)
(-0.06310137156 0.08028663285 -7.318350408e-23)
(-0.08189649514 0.07587334078 9.037426591e-23)
(-0.09946880921 0.0662114207 -3.588181937e-24)
(-0.1150129597 0.05201344065 -1.727999716e-24)
(-0.1277415418 0.03392225306 2.522379889e-24)
(-0.1368366504 0.01270321729 7.373891562e-24)
(-0.1414605748 -0.01058483524 -6.49121713e-24)
(-0.1408148289 -0.03445542125 -9.767076659e-24)
(-0.1342654349 -0.05692146705 -3.261453386e-23)
(-0.121537003 -0.07552602544 -3.648190549e-23)
(-0.102960652 -0.08753523694 5.618847503e-25)
(-0.07975867806 -0.0903852202 0)
(-0.05426345185 -0.08243945872 0)
(-0.02986975601 -0.06397342901 -2.903042406e-24)
(-0.01066217829 -0.03798594096 2.967424631e-24)
(-0.0007350293128 -0.01050050518 1.027754347e-22)
(-0.0004478967748 0.02686953289 0)
(-0.01134828752 0.06480050899 2.001763614e-22)
(-0.02801366192 0.08828682013 8.961294174e-23)
(-0.04799462674 0.1001133421 0)
(-0.06920046657 0.1026978738 1.569246144e-22)
(-0.09043671504 0.09780726109 0)
(-0.1107749226 0.08660439712 -1.427920416e-22)
(-0.1294001898 0.06983517918 6.512955802e-24)
(-0.1454673475 0.04808052876 0)
(-0.1580250536 0.02201834 0)
(-0.1660032257 -0.007331193171 -1.373622467e-24)
(-0.1682573537 -0.03838294822 -9.308838095e-25)
(-0.1636972882 -0.06883251937 1.490937676e-22)
(-0.1515126213 -0.09557428381 -4.704121377e-23)
(-0.1315064249 -0.1148208568 -2.557854314e-24)
(-0.104554065 -0.1225616222 1.531706047e-24)
(-0.07308961677 -0.1155442549 -1.555867624e-24)
(-0.04134798676 -0.09282559041 0)
(-0.0152514509 -0.05740455639 3.20210948e-24)
(-0.001044229894 -0.01714635332 -1.012466581e-21)
(-0.000374481108 0.0334595918 0)
(-0.01174936409 0.07998104781 -1.127748272e-22)
(-0.02920527291 0.1086283559 -6.189694624e-22)
(-0.05031431373 0.1232117701 -3.754490368e-22)
(-0.07295868818 0.1268985183 0)
(-0.09598387611 0.1219158165 4.11847105e-22)
(-0.1185205795 0.1096272522 1.260511612e-22)
(-0.1398070721 0.09077742636 -5.580135331e-24)
(-0.1590140403 0.06581170558 5.552516661e-24)
(-0.1751376907 0.03520943036 0)
(-0.18694752 -0.0001934050854 2.911294809e-23)
(-0.1930089327 -0.03889173777 4.693926796e-24)
(-0.1917730186 -0.07843101217 -1.07623051e-22)
(-0.1817800526 -0.1151771226 7.998740115e-23)
(-0.1620504924 -0.1442496646 -2.418514906e-22)
(-0.1327007801 -0.1598445618 0)
(-0.09577487251 -0.1563019774 0)
(-0.05601389302 -0.1302908475 0)
(-0.02147759799 -0.08380697077 0)
(-0.001500291045 -0.02665387851 5.569836143e-22)
(-0.0002874421664 0.04015702143 0)
(-0.01169325203 0.09542725165 -3.492265743e-22)
(-0.02924334987 0.1293956525 8.931108366e-22)
(-0.05060754593 0.1469172323 3.616389641e-22)
(-0.07369796091 0.1519626776 0)
(-0.09744777986 0.1472651874 -3.861631451e-22)
(-0.1211025393 0.1344109134 -3.173719395e-23)
(-0.1440275121 0.1141338322 3.332422637e-22)
(-0.1655090267 0.08669755639 1.769107369e-22)
(-0.1846193898 0.05229172082 -4.05931537e-23)
(-0.2001270737 0.01142048826 1.656685061e-23)
(-0.2104567715 -0.0347083569 -8.262977712e-24)
(-0.2137154696 -0.08375756999 3.371063514e-22)
(-0.2078163241 -0.1318658496 0)
(-0.1908189185 -0.173264689 2.419683336e-22)
(-0.1616291642 -0.2002480359 5.771023973e-24)
(-0.1211627167 -0.2040015004 -5.85708703e-24)
(-0.07384753742 -0.1772032095 1.547234077e-22)
(-0.02971681139 -0.1188585676 -5.431815927e-24)
(-0.002179439281 -0.04005214435 0)
(-0.0002118082279 0.04671256423 0)
(-0.01125008947 0.1105406773 0)
(-0.02815616305 0.1497233579 -5.021882906e-22)
(-0.04874437703 0.1701385713 -1.880692628e-23)
(-0.07100004676 0.1766130465 2.038023212e-23)
(-0.09399332161 0.1724416648 -2.013959904e-23)
(-0.1171419651 0.1594785766 -2.316456771e-23)
(-0.1400163474 0.1384748996 -3.029199767e-22)
(-0.1621312704 0.1095135422 6.698208238e-23)
(-0.182794345 0.07245235987 4.512233006e-23)
(-0.2009820617 0.02735257288 -4.576746277e-23)
(-0.215225533 -0.02508122633 0)
(-0.2235546062 -0.08297568929 -7.836195119e-23)
(-0.2234613506 -0.1427162252 0)
(-0.2120657587 -0.1981713287 -3.738751595e-22)
(-0.1867410382 -0.2400659247 5.243487697e-22)
(-0.1464414647 -0.2560660655 0)
(-0.09394380712 -0.2331111255 -1.492816818e-22)
(-0.04021902415 -0.1639545828 1.936334077e-22)
(-0.003200987795 -0.05860821526 -3.410318413e-22)
(-0.0002016596975 0.0529721856 0)
(-0.01067314623 0.1248083461 9.181716963e-22)
(-0.02628542012 0.1687305026 -2.440353634e-23)
(-0.0450123277 0.1916324535 9.192163391e-22)
(-0.06494742598 0.19927956 -2.511730553e-23)
(-0.0853679126 0.1955996158 2.838417534e-23)
(-0.105932402 0.1827804045 -2.812507487e-23)
(-0.1264945259 0.1616530412 -1.660666399e-23)
(-0.1469021048 0.132173998 -5.259446825e-22)
(-0.1668485338 0.09389716377 -8.905298349e-24)
(-0.1857332191 0.04640905965 9.658801719e-24)
(-0.2024811176 -0.0102323766 3.312672853e-22)
(-0.2154181698 -0.07499095688 -5.819909326e-22)
(-0.2220231128 -0.1450225233 0)
(-0.2188045201 -0.2146662715 8.885778752e-22)
(-0.2016261023 -0.2739910325 -4.939508747e-22)
(-0.1668634326 -0.3075703156 -1.571781775e-23)
(-0.1140211063 -0.2953711315 0)
(-0.05288409841 -0.2195727703 -1.88898823e-22)
(-0.004749081091 -0.08376985861 3.359397178e-22)
(-0.0003643395927 0.05901993277 1.550826442e-23)
(-0.01049669402 0.1379800248 -8.763097844e-22)
(-0.02441585844 0.1856692806 -1.156935819e-21)
(-0.04027014148 0.2101261953 -8.627884604e-22)
(-0.05631100294 0.2182230754 0)
(-0.07215298271 0.2146089126 3.513360361e-23)
(-0.08779727868 0.2018716002 -7.293941771e-23)
(-0.103461945 0.1809959037 5.867144516e-23)
(-0.1194046013 0.151898053 3.020957248e-22)
(-0.1357998139 0.1139161403 -1.128059622e-23)
(-0.1526151699 0.06621765463 0)
(-0.1694590817 0.008182404821 -3.603482905e-22)
(-0.1852826733 -0.06015334699 7.514874519e-22)
(-0.1980507542 -0.1372672166 8.830876298e-22)
(-0.2043594013 -0.2189179336 -5.295848485e-22)
(-0.1991010808 -0.2959623371 5.162018088e-22)
(-0.1760622969 -0.3513977789 1.077839611e-23)
(-0.1300895114 -0.3584057736 -1.095148338e-23)
(-0.06688779358 -0.2843201171 -8.226227229e-23)
(-0.007083239635 -0.1169931944 0)
(-0.00090973153 0.06539781311 -1.91129446e-23)
(-0.01167723068 0.150274765 -1.326846107e-21)
(-0.0238916588 0.2000562493 1.094121511e-21)
(-0.03601775485 0.2244108041 6.734308529e-22)
(-0.04657879419 0.231648283 6.014063684e-22)
(-0.05577725544 0.2272303953 6.643305713e-22)
(-0.06412029091 0.2141708876 -4.458200342e-23)
(-0.07228423567 0.1936456282 -3.46100185e-22)
(-0.08097895462 0.1656018135 2.151960363e-22)
(-0.09088154543 0.1292722325 0)
(-0.1025645412 0.08353434455 0)
(-0.1163719151 0.02720506107 2.655201381e-22)
(-0.1321682487 -0.04061424525 8.19480924e-23)
(-0.1489337522 -0.1200065721 -2.821224598e-22)
(-0.1641357566 -0.2089235301 -5.410829581e-23)
(-0.1727934783 -0.3006923658 1.302025887e-22)
(-0.1670349502 -0.3793255271 -3.399943377e-22)
(-0.1365311331 -0.4136375566 -1.598792543e-23)
(-0.08018290568 -0.3538258322 8.214984999e-23)
(-0.01050759948 -0.1594097716 -6.03301604e-22)
(-0.002260652371 0.07348704258 0)
(-0.01580510816 0.1626469325 2.145693835e-21)
(-0.02665388752 0.2117826791 0)
(-0.0342288239 0.2333857199 -1.351694724e-21)
(-0.03760119872 0.2377678396 6.184507602e-23)
(-0.03800556553 0.2312478074 -6.192484468e-22)
(-0.03669250804 0.2171844146 -4.755868883e-22)
(-0.0349010221 0.1968904942 8.300499235e-22)
(-0.03379953524 0.1703337452 -1.885519506e-22)
(-0.0345100858 0.1367238233 0)
(-0.03812694616 0.09480017702 0)
(-0.04566079056 0.04304743671 2.410858175e-23)
(-0.05791834271 -0.02013269352 -6.006794518e-22)
(-0.07515547289 -0.0962013405 -4.309273433e-22)
(-0.09646012565 -0.1855506216 4.637630057e-22)
(-0.1183531577 -0.28535188 -6.488145246e-22)
(-0.1332766356 -0.3838335317 9.118234891e-23)
(-0.1265381047 -0.4504304565 2.942539925e-23)
(-0.08899257934 -0.4198483036 5.6607765e-22)
(-0.015269238 -0.2111690149 6.021647168e-22)
(-0.005181031574 0.08597955752 0)
(-0.02525709596 0.1766257239 1.465617336e-22)
(-0.03483775135 0.2205905869 -4.916808367e-23)
(-0.0364060265 0.2354791495 7.642348401e-22)
(-0.03019276428 0.234333811 -7.004816697e-22)
(-0.01917543585 0.2241544364 4.74610528e-23)
(-0.00562593178 0.2083482527 -1.018568758e-22)
(0.008558083107 0.1881217808 -3.389598283e-22)
(0.02178696684 0.1633908507 2.062674653e-22)
(0.03261606205 0.1333258428 0)
(0.0395732776 0.09664386471 0)
(0.04115951388 0.05174446491 -2.902495821e-22)
(0.03577499105 -0.003251174591 0)
(0.02197289202 -0.07057946537 -5.511975676e-22)
(-0.00127275607 -0.1525698037 -1.491732863e-23)
(-0.03311135672 -0.2505916589 2.559540239e-23)
(-0.06909767654 -0.3599309444 2.202761431e-22)
(-0.092281752 -0.4575393247 4.790002664e-24)
(-0.08718231577 -0.4698094376 -5.789771596e-22)
(-0.02103141936 -0.2698949429 0)
(-0.01111638522 0.1085974159 0)
(-0.04249031688 0.1947135639 -8.847954562e-22)
(-0.04795850464 0.225816229 -5.41079055e-22)
(-0.03920072252 0.228209063 4.543589309e-22)
(-0.01878572206 0.2182280031 -1.71013924e-24)
(0.007655158377 0.2028176902 -4.56075967e-23)
(0.03666956264 0.1847587277 5.696262375e-22)
(0.06581890611 0.164709936 -2.766695299e-23)
(0.09326001578 0.1423124885 -2.069631276e-22)
(0.1173781481 0.1166285958 3.142017767e-23)
(0.136535784 0.08641368225 -3.425729564e-23)
(0.148957398 0.05017967311 -3.690430167e-23)
(0.1525190885 0.006162451494 3.205505326e-22)
(0.1449293095 -0.04795812132 6.11937423e-22)
(0.123509602 -0.1153025982 -5.100982525e-22)
(0.08633007799 -0.2004174517 -1.615969362e-22)
(0.03198629832 -0.3067790256 1.531365111e-22)
(-0.02362451567 -0.4239820715 7.293782625e-23)
(-0.06492546671 -0.4871594103 1.91330455e-21)
(-0.02509990082 -0.3291530128 2.95500612e-21)
(-0.0200467571 0.1460731767 -4.3900597e-23)
(-0.0641646593 0.2112953113 4.417231523e-23)
(-0.0507042222 0.2177285926 1.000148791e-21)
(-0.01934456573 0.2014655548 -8.266500702e-24)
(0.02413927151 0.1809047114 0)
(0.07153419996 0.1606905239 4.36345106e-23)
(0.1190620733 0.1416473048 -2.27369875e-22)
(0.1644676823 0.1233167773 -9.027323475e-23)
(0.2062157743 0.1048113204 3.680477444e-23)
(0.2429551598 0.08507195262 -1.701551339e-23)
(0.2732122153 0.06296282219 3.42978265e-23)
(0.2952459952 0.03726481362 -6.592368214e-23)
(0.3066904779 0.006537168692 -9.30352859e-23)
(0.3049682431 -0.03087567755 1.516988986e-22)
(0.2863890792 -0.07786123151 0)
(0.2470531873 -0.1399288778 1.505514834e-22)
(0.1810892923 -0.2266294482 2.560009378e-22)
(0.09604231276 -0.3443888478 0)
(-0.006698735717 -0.4552203317 -3.675654018e-21)
(-0.01922426528 -0.3777531199 -2.89263499e-21)
(-0.02591937939 0.2276833388 -9.514113541e-22)
(-0.03998303262 0.2238219694 -1.388940995e-22)
(0.03656113255 0.1810582573 -2.335483704e-22)
(0.109049104 0.145105037 -1.193687409e-22)
(0.1817166492 0.1172432936 -4.295650145e-23)
(0.2490052552 0.09627774676 9.782554668e-23)
(0.3100286784 0.080023969 -1.408492994e-22)
(0.3646150942 0.06656739377 1.297084361e-22)
(0.4126189718 0.05449150907 -8.619523027e-23)
(0.4536187517 0.04270915366 1.132172566e-25)
(0.4867819831 0.0303235957 1.527661087e-23)
(0.5107399369 0.01652990441 7.996820846e-23)
(0.5236554568 0.0005374562349 -1.811049923e-22)
(0.5231765332 -0.01863281662 -1.617090904e-22)
(0.505229941 -0.04286405062 -4.262679781e-23)
(0.465869819 -0.07633184824 0)
(0.3952684265 -0.1286087933 -1.846503951e-22)
(0.2916061835 -0.2208467684 8.148787264e-22)
(0.1197449523 -0.352501652 1.631605915e-21)
(0.02670533139 -0.3775497145 2.172657901e-21)
(0.2142895866 0.1347448587 9.864888312e-22)
(0.2776315545 0.09870521306 0)
(0.4316597157 0.05810423166 -2.594244262e-22)
(0.5304751371 0.03846262147 -1.741601022e-22)
(0.601696207 0.02623407963 0)
(0.6571188227 0.01831909354 -6.008704668e-23)
(0.7015196215 0.01313588755 6.377525884e-23)
(0.7376020124 0.009542060327 -1.800010869e-23)
(0.7669343447 0.006804472404 2.8857492e-23)
(0.7902081779 0.004464827316 2.314870259e-23)
(0.807453258 0.002221462385 0)
(0.8182603157 -0.0001498960431 -2.872883916e-23)
(0.8216486766 -0.002723660518 0)
(0.8162386689 -0.005712527147 2.737983787e-23)
(0.7991329958 -0.009611299606 1.421591167e-23)
(0.7679986029 -0.01500252882 -5.799482211e-23)
(0.7106556543 -0.02502523659 -2.535675856e-22)
(0.6235184485 -0.04204289762 -6.918120366e-22)
(0.4230090965 -0.0918297259 0)
(0.2705674554 -0.1524022045 -2.119485717e-21)
)


// ************************************************************************* //
