/*--------------------------------*- C++ -*----------------------------------*\
  =========                 |
  \\      /  F ield         | OpenFOAM: The Open Source CFD Toolbox
   \\    /   O peration     | Website:  https://openfoam.org
    \\  /    A nd           | Version:  13
     \\/     M anipulation  |
\*---------------------------------------------------------------------------*/
FoamFile
{
    format      ascii;
    class       surfaceScalarField;
    location    "7";
    object      phi_0;
}
// * * * * * * * * * * * * * * * * * * * * * * * * * * * * * * * * * * * * * //

dimensions      [0 3 -1 0 0 0 0];

internalField   nonuniform List<scalar> 
180
(
-0.000246431
0.000246432
-0.000898898
0.000652467
-0.00170391
0.000805012
-0.00242649
0.000722577
-0.00286164
0.000435153
-0.00282825
-3.3392e-05
-0.00223683
-0.000591424
-0.00124401
-0.000992825
-0.00032058
-0.000923429
-0.000320581
-0.000803368
0.0010498
-0.00241061
0.0022597
-0.00422543
0.00261983
-0.00577982
0.00227697
-0.00667456
0.00132989
-0.00657222
-0.000135742
-0.0053153
-0.00184834
-0.00316661
-0.00314151
-0.00100108
-0.00308895
-0.00132167
-0.00128359
0.00233339
-0.00365968
0.00463579
-0.00622435
0.00518451
-0.00839926
0.00445188
-0.00970781
0.00263843
-0.00971887
-0.000124685
-0.00814589
-0.00342132
-0.00515177
-0.00613562
-0.00177935
-0.00646137
-0.00310101
-0.00170049
0.00403388
-0.00471262
0.00764792
-0.00790762
0.00837951
-0.0106712
0.00721542
-0.0125137
0.00448094
-0.0129148
0.00027641
-0.0113679
-0.0049682
-0.00771563
-0.00978787
-0.00293605
-0.0112409
-0.00603707
-0.00208216
0.00611605
-0.005575
0.0111408
-0.00920995
0.0120145
-0.0124175
0.010423
-0.0147863
0.00684978
-0.0157705
0.00126061
-0.0146804
-0.00605834
-0.0108367
-0.0136315
-0.00467306
-0.0174046
-0.0107101
-0.00243101
0.00854706
-0.00611394
0.0148237
-0.00971816
0.0156187
-0.01284
0.0135449
-0.0153108
0.00932059
-0.0167908
0.00274062
-0.0165786
-0.00627062
-0.013468
-0.0167421
-0.00672887
-0.0241438
-0.017439
-0.00276578
0.0113128
-0.00613319
0.0181911
-0.00873231
0.0182178
-0.0106227
0.0154353
-0.0121619
0.0108598
-0.0135486
0.00412733
-0.0144154
-0.00540384
-0.0133053
-0.0178522
-0.00792477
-0.0295243
-0.0253638
-0.00334168
0.0146545
-0.00549145
0.0203409
-0.00515799
0.0178843
-0.00389813
0.0141754
-0.0029245
0.00988614
-0.00309782
0.00430065
-0.00478846
-0.0037132
-0.00696932
-0.0156714
-0.00622296
-0.0302706
-0.0315867
-0.00535994
0.0200145
-0.00116398
0.0161449
0.00608234
0.010638
0.0125513
0.00770643
0.0171787
0.00525872
0.0190156
0.00246378
0.0169345
-0.00163211
0.0105518
-0.00928866
0.00200693
-0.0217257
-0.0295798
0.0200145
0.0361594
0.0467974
0.0545038
0.0597625
0.0622263
0.0605942
0.0513055
0.0295798
)
;

boundaryField
{
    movingWall
    {
        type            calculated;
        value           uniform 0;
    }
    fixedWalls
    {
        type            calculated;
        value           uniform 0;
    }
    frontAndBack
    {
        type            empty;
    }
}


// ************************************************************************* //
