/*--------------------------------*- C++ -*----------------------------------*\
  =========                 |
  \\      /  F ield         | OpenFOAM: The Open Source CFD Toolbox
   \\    /   O peration     | Website:  https://openfoam.org
    \\  /    A nd           | Version:  13
     \\/     M anipulation  |
\*---------------------------------------------------------------------------*/
FoamFile
{
    format      ascii;
    class       volScalarField;
    location    "18";
    object      p;
}
// * * * * * * * * * * * * * * * * * * * * * * * * * * * * * * * * * * * * * //

dimensions      [0 2 -2 0 0 0 0];

internalField   nonuniform List<scalar> 
400
(
8.551593089e-09
-0.0004650685036
-0.001015017571
-0.001414075964
-0.001552643691
-0.001388098255
-0.0009038113604
-9.767420631e-05
0.001014139241
0.002385976138
0.003931004889
0.005516133721
0.006970492203
0.008110714524
0.0087820493
0.008906173944
0.008520457263
0.007794684909
0.007015122027
0.006505891537
0.0004693439164
-1.17115166e-05
-0.0004895542292
-0.0008009267884
-0.0008886548632
-0.000729303186
-0.0003093494873
0.0003769866002
0.001321409451
0.002490533353
0.003814595936
0.005182123707
0.006445889099
0.007445422258
0.008043856365
0.008171042513
0.007857111868
0.007240743927
0.006546946209
0.006026858709
0.001040606539
0.0004315276538
-7.444284529e-05
-0.000359918417
-0.0004350698633
-0.0003058062169
3.540841067e-05
0.0006002374544
0.001393307697
0.002398531004
0.003565097136
0.004798627897
0.005963939505
0.00690454705
0.007479075058
0.007605854937
0.007297614534
0.006665762649
0.00589142441
0.005211022045
0.001433052483
0.0006448889049
3.98588273e-05
-0.0002827274652
-0.0003926203081
-0.0003248022155
-7.698888727e-05
0.0003712119407
0.001041718968
0.001939860187
0.0030351621
0.00424649911
0.005439249225
0.006441663439
0.007082836772
0.007244433663
0.006905235762
0.006151916599
0.005154691366
0.00419838127
0.001432369739
0.0004594771875
-0.0002692448031
-0.0006649552507
-0.0008476689517
-0.0008757600904
-0.0007477921115
-0.00043009939
0.0001217286449
0.0009400888799
0.002019866851
0.00329550488
0.004629580025
0.005823135443
0.006654169856
0.006939660999
0.006598781904
0.005683881584
0.004375055194
0.003053638227
0.0008640327295
-0.0002793408874
-0.001136140169
-0.001627883313
-0.001918553284
-0.002084106401
-0.002119014451
-0.001971257214
-0.001567494921
-0.0008395308153
0.000243807886
0.001643461633
0.003226028542
0.004761507382
0.005957158316
0.006529732297
0.006296267535
0.005243441519
0.003563007402
0.001781819949
-0.0004225972255
-0.001713316277
-0.002695994762
-0.00330419442
-0.003742228114
-0.004099602558
-0.004363193474
-0.004458359753
-0.004275753325
-0.003699401844
-0.002643997937
-0.001099898331
0.0008238349402
0.002875031886
0.004676007564
0.005799582749
0.005893856869
0.004813257017
0.002732204202
0.0003800905917
-0.002552814107
-0.003962347815
-0.005066487071
-0.005812654107
-0.006444223235
-0.007062979054
-0.007647524143
-0.008098652028
-0.008264806985
-0.007968339702
-0.007045540602
-0.005403838132
-0.003089094746
-0.0003456229306
0.002365830263
0.004429698871
0.00523084349
0.004372104908
0.001926331844
-0.001114985428
-0.005619248963
-0.007114493337
-0.008332475715
-0.009235849305
-0.01010872576
-0.01106771964
-0.01208654739
-0.01304342313
-0.01374156939
-0.01392899485
-0.01333644497
-0.011744091
-0.009075892375
-0.005507903302
-0.001548749858
0.001972277059
0.004064507855
0.003892768663
0.001250881496
-0.002571839585
-0.009674015807
-0.01121704615
-0.01253195688
-0.01359740845
-0.01474481602
-0.01611347807
-0.01768057729
-0.01930876522
-0.02075844589
-0.0216961216
-0.02172357958
-0.02044639883
-0.01759514551
-0.01318340517
-0.007681568166
-0.002106084604
0.002079405495
0.003353197843
0.000918546687
-0.003682812839
-0.01472646766
-0.01627273166
-0.01764545316
-0.01884017108
-0.02025138465
-0.02205631607
-0.02424898641
-0.02668804495
-0.02909939462
-0.03106936159
-0.0320583381
-0.03146107257
-0.0287441703
-0.02364365793
-0.0164499701
-0.008253512952
-0.001014148975
0.002794861894
0.001325484858
-0.003835963006
-0.02075553564
-0.02224758325
-0.02359372875
-0.02481069839
-0.02638935528
-0.02857017407
-0.03138088347
-0.03468899404
-0.03819703735
-0.04142000321
-0.04367988221
-0.04414945765
-0.04197272135
-0.03651300659
-0.02770439201
-0.01649953518
-0.005235287656
0.002480075344
0.003187329474
-0.001913793309
-0.02774967482
-0.02909813819
-0.03024767464
-0.03125470274
-0.03277094757
-0.03513754034
-0.03843182153
-0.04253753694
-0.04714031049
-0.05169320959
-0.05539199848
-0.05719496591
-0.05592439754
-0.0505033657
-0.04035891649
-0.02603708003
-0.009955061748
0.003175793012
0.007768004442
0.004003289398
-0.03579948792
-0.03682729764
-0.03745012608
-0.03782357954
-0.03887263778
-0.04108403132
-0.04458919288
-0.04927947493
-0.05481472899
-0.06058411495
-0.0656667215
-0.06882838405
-0.06859675546
-0.06346218707
-0.05227551723
-0.03494232822
-0.01353255972
0.006500610138
0.01719827275
0.01701225544
-0.04529447855
-0.04558373523
-0.04504651192
-0.04408985036
-0.04407640066
-0.045664345
-0.0490104233
-0.05397550561
-0.06015941369
-0.06686297005
-0.07304031697
-0.07727738417
-0.07784187468
-0.07284717629
-0.06060417581
-0.04028130502
-0.01318702764
0.01517471307
0.03475446749
0.04163411967
-0.05726666228
-0.05583250012
-0.05293184008
-0.04958253719
-0.04775256545
-0.04820141656
-0.05101282488
-0.05593749428
-0.06245162047
-0.06971774921
-0.07653216228
-0.08128880129
-0.08200945939
-0.07647736413
-0.06254716154
-0.03870465612
-0.005264860639
0.03304824569
0.06491067669
0.08343780067
-0.0739666359
-0.06865749893
-0.0610665657
-0.05379766447
-0.04933556459
-0.04820631127
-0.05021409561
-0.05487691095
-0.0614590966
-0.06892344531
-0.07586482009
-0.08045477071
-0.08045195934
-0.07330174094
-0.05641351339
-0.02763031222
0.01380214979
0.06473511527
0.1136193561
0.1492841522
-0.1024372716
-0.08647994092
-0.06904795549
-0.05577985317
-0.04801417894
-0.04513148777
-0.04632501825
-0.05072304913
-0.0572828347
-0.06472340698
-0.07143096599
-0.07534084128
-0.07393122381
-0.06426097852
-0.04315751495
-0.00757843216
0.04473448213
0.1133670377
0.189705587
0.2565648783
-0.1745870942
-0.1137150318
-0.07318212759
-0.05186982558
-0.04129183075
-0.03740218617
-0.03848283769
-0.04317390812
-0.05006333824
-0.05764877423
-0.06421693245
-0.06755357656
-0.06490906575
-0.0529928844
-0.02796681517
0.01461921691
0.0800745292
0.1743738455
0.3020278552
0.4505051237
-0.3544736275
-0.1541149027
-0.06985997468
-0.04270687561
-0.03143958417
-0.02743123751
-0.02903092656
-0.03452571927
-0.04215944015
-0.05027585044
-0.05706788441
-0.0603182454
-0.0572789625
-0.04456827046
-0.01772499161
0.02934382685
0.1063066388
0.2310058622
0.4324569968
0.7337259294
)
;

boundaryField
{
    movingWall
    {
        type            zeroGradient;
    }
    fixedWalls
    {
        type            zeroGradient;
    }
    frontAndBack
    {
        type            empty;
    }
}


// ************************************************************************* //
