/*--------------------------------*- C++ -*----------------------------------*\
  =========                 |
  \\      /  F ield         | OpenFOAM: The Open Source CFD Toolbox
   \\    /   O peration     | Website:  https://openfoam.org
    \\  /    A nd           | Version:  13
     \\/     M anipulation  |
\*---------------------------------------------------------------------------*/
FoamFile
{
    format      ascii;
    class       volScalarField;
    location    "18";
    object      p;
}
// * * * * * * * * * * * * * * * * * * * * * * * * * * * * * * * * * * * * * //

dimensions      [0 2 -2 0 0 0 0];

internalField   nonuniform List<scalar> 
400
(
7.509534913e-07
-0.0005457857366
-0.0008871146995
-0.001013976607
-0.0009346091406
-0.0006813504494
-0.0002917514148
0.0001982300846
0.0007521078902
0.001329437804
0.001884611618
0.002364822177
0.002714713378
0.002881222015
0.002822822142
0.002521484703
0.001997579532
0.001308181933
0.0006499831128
5.4575575e-05
0.0005882457797
7.804354516e-06
-0.0003552262645
-0.000496932801
-0.0004657088116
-0.0002881045588
6.500943703e-06
0.000388813805
0.0008274323843
0.001285126562
0.00172209307
0.002087212749
0.002330140501
0.002403535364
0.002273525819
0.001931301377
0.001403525526
0.0007551506421
0.0001582082838
-0.0005040577615
0.0009518234938
0.0003083506917
-9.214207836e-05
-0.0002378294895
-0.0002310745683
-0.0001019208321
0.0001255905813
0.0004301453378
0.0007880018507
0.00116724845
0.001535798728
0.001839869321
0.002029481579
0.002055932294
0.00188408513
0.001504087516
0.0009398477661
0.0002478373423
-0.0004499290493
-0.001286260171
0.0009751228555
0.0002579706585
-0.0001914498542
-0.0003430441891
-0.0003515553409
-0.0002537578466
-7.030775249e-05
0.000186159587
0.0005020550851
0.0008570462181
0.001210209623
0.001518413194
0.001720975519
0.001757417855
0.001578890729
0.00116198795
0.0005184760816
-0.0003049741196
-0.001219433979
-0.002369189543
0.0004796887204
-0.0002847735504
-0.0007628228014
-0.0009137559691
-0.000933869783
-0.0008643993722
-0.0007203693567
-0.0005023101221
-0.0002100091009
0.0001472187933
0.0005389653834
0.0009169650319
0.001210068556
0.001337463744
0.001222795176
0.0008128880929
9.367250872e-05
-0.000902834109
-0.002111757376
-0.003638971867
-0.0006860796224
-0.001465903119
-0.001954094824
-0.002104289112
-0.002145943973
-0.002121241367
-0.002035379943
-0.001871284038
-0.001607826543
-0.001234676428
-0.000767396344
-0.0002505109747
0.0002334303679
0.0005747072603
0.0006515272241
0.0003558558405
-0.0003778518482
-0.001547821054
-0.003117377493
-0.005123050224
-0.002659472725
-0.003420382186
-0.003911394108
-0.004075769497
-0.004171718039
-0.004239003947
-0.004268063397
-0.0042170587
-0.004033707237
-0.003674361231
-0.003124558157
-0.002410048665
-0.001616671293
-0.0008866956614
-0.0004082101569
-0.0003820180047
-0.0009711517967
-0.002242633995
-0.00421350394
-0.006807304522
-0.005549582258
-0.006263955032
-0.006761395583
-0.006974132538
-0.007185708221
-0.007431302755
-0.007682434802
-0.007864931334
-0.0078826058
-0.007639267861
-0.007064919749
-0.006136634797
-0.004921156479
-0.003583048217
-0.002393106332
-0.001694545697
-0.001823608314
-0.002995074415
-0.00534736132
-0.008639291863
-0.009425849563
-0.01007194874
-0.01058798578
-0.01089876214
-0.01131187996
-0.0118588272
-0.01249090308
-0.01309596844
-0.01352117202
-0.01359445524
-0.01315215876
-0.01209050414
-0.01039809734
-0.008228164374
-0.005929980156
-0.004037625253
-0.003167431452
-0.003820879327
-0.006403579689
-0.01046702885
-0.01430311048
-0.01486222064
-0.01540841443
-0.01586594215
-0.01657101591
-0.01755756105
-0.01876037452
-0.02002843832
-0.02114328897
-0.02183654454
-0.02181866252
-0.02083321282
-0.01873388652
-0.01558427869
-0.01176231891
-0.008007942312
-0.005333441135
-0.004735493714
-0.007156649502
-0.01195342092
-0.02013599537
-0.0205867235
-0.02115621263
-0.02177633161
-0.02282854652
-0.02436268043
-0.02630688386
-0.02847659113
-0.03058637452
-0.03225915167
-0.03304909489
-0.03249429508
-0.03023738234
-0.02613629582
-0.02048628639
-0.01416967977
-0.008661492203
-0.005699701272
-0.007193626759
-0.01244026313
-0.02683378092
-0.02714043933
-0.02768038094
-0.02839892832
-0.02976184372
-0.03185737799
-0.03462216139
-0.03784796025
-0.04118792749
-0.0441559241
-0.04613742349
-0.04642836843
-0.04441418735
-0.03961415668
-0.03207922238
-0.0226616703
-0.01323430733
-0.006457760801
-0.005782897159
-0.01074011191
-0.03430876229
-0.03439347398
-0.03476468584
-0.0353781934
-0.03686240899
-0.03937622016
-0.04288126836
-0.04715403553
-0.05179236521
-0.0562080452
-0.05962849661
-0.06114036543
-0.05973154248
-0.05461126958
-0.04540067109
-0.03266374359
-0.01842165455
-0.006218599351
-0.001649797882
-0.004851262176
-0.04258179356
-0.04225304691
-0.04216969684
-0.04226904964
-0.04348423848
-0.04608298016
-0.05006147544
-0.05517776099
-0.06096889409
-0.06674817391
-0.07159228721
-0.074367214
-0.0737902606
-0.06863677706
-0.05803812194
-0.04203187902
-0.02241363609
-0.003233971758
0.007367325933
0.008359100299
-0.05198176522
-0.05073443806
-0.04965242964
-0.0485534473
-0.04889953967
-0.0510895686
-0.05513781652
-0.06075714208
-0.06739329206
-0.0742465736
-0.08024064079
-0.0840373584
-0.08409661419
-0.07880877008
-0.06681893664
-0.04750319634
-0.022109874
0.005517492063
0.0247292261
0.03353870286
-0.06362864672
-0.0601642401
-0.05707441802
-0.05374242103
-0.05244259518
-0.05365426643
-0.05733425132
-0.06310468116
-0.07022556301
-0.07776330046
-0.08445686259
-0.08875433882
-0.08887313636
-0.08282035342
-0.0688372488
-0.04561121067
-0.01374468934
0.0244233041
0.05554536251
0.07736013279
-0.08016249003
-0.07105354402
-0.06410273681
-0.05714896123
-0.05341471258
-0.05319587091
-0.05623511223
-0.06188570404
-0.06922754988
-0.07708476043
-0.08398201179
-0.08812598793
-0.08746030056
-0.07964412945
-0.06247384671
-0.03404994259
0.005559760598
0.05859553769
0.1058215754
0.1480657191
-0.1104888255
-0.08583873123
-0.07159440582
-0.05896183757
-0.0519040947
-0.04987039425
-0.05208517617
-0.05748625922
-0.06483337594
-0.07268108076
-0.07931428828
-0.08269222143
-0.08050540675
-0.06987897099
-0.04823103322
-0.01272657311
0.03822872893
0.1071251727
0.1779716667
0.2564691421
-0.1684236902
-0.09989711673
-0.07500161104
-0.05479383651
-0.04461448639
-0.04157740339
-0.04370468443
-0.04936317502
-0.05699470455
-0.06494655695
-0.07133854443
-0.07396055018
-0.07011494218
-0.0570063765
-0.03102794897
0.01192452887
0.07559111327
0.1663948574
0.2761524051
0.4376952882
-0.3984152799
-0.1380893755
-0.07496515238
-0.04708623593
-0.0335470836
-0.03002450746
-0.03279149476
-0.03924885278
-0.04753832249
-0.05591674703
-0.0624783208
-0.06501057466
-0.06098102352
-0.04696151721
-0.01875478666
0.02993220636
0.1069487631
0.233418807
0.4198713745
0.7800149157
)
;

boundaryField
{
    movingWall
    {
        type            zeroGradient;
    }
    fixedWalls
    {
        type            zeroGradient;
    }
    frontAndBack
    {
        type            empty;
    }
}


// ************************************************************************* //
