/*--------------------------------*- C++ -*----------------------------------*\
  =========                 |
  \\      /  F ield         | OpenFOAM: The Open Source CFD Toolbox
   \\    /   O peration     | Website:  https://openfoam.org
    \\  /    A nd           | Version:  13
     \\/     M anipulation  |
\*---------------------------------------------------------------------------*/
FoamFile
{
    format      ascii;
    class       surfaceScalarField;
    location    "18";
    object      phi;
}
// * * * * * * * * * * * * * * * * * * * * * * * * * * * * * * * * * * * * * //

dimensions      [0 3 -1 0 0 0 0];

internalField   nonuniform List<scalar> 
760
(
-1.322146471e-05
1.321299183e-05
-7.197042284e-05
5.874894901e-05
-0.0001619397591
8.996945174e-05
-0.0002649894911
0.0001030495696
-0.0003679104066
0.0001029209565
-0.0004610878163
9.317753122e-05
-0.000537272699
7.618482778e-05
-0.0005907340758
5.34612528e-05
-0.0006170041469
2.627004243e-05
-0.0006131210084
-3.88313947e-06
-0.0005780602944
-3.506075552e-05
-0.0005135361148
-6.452420959e-05
-0.0004244595579
-8.907655422e-05
-0.000319188808
-0.0001052707342
-0.0002092250515
-0.0001099637498
-0.0001082029187
-0.0001010221285
-3.001663e-05
-7.81862821e-05
1.406862453e-05
-4.40852676e-05
2.186573127e-05
-7.797176861e-06
2.18656821e-05
-6.863974842e-05
8.185277668e-05
-0.0002455281202
0.0002356374876
-0.0004929620557
0.0003374031239
-0.0007714715851
0.0003815590743
-0.001049318205
0.0003807676202
-0.001301673182
0.0003455323629
-0.001509096856
0.0002836083721
-0.001656274182
0.0002006385879
-0.001731602921
0.000101598819
-0.001727801446
-7.684648239e-06
-0.001642503098
-0.0001203591653
-0.001480326409
-0.0002267009203
-0.001253573229
-0.0003158297263
-0.0009827715627
-0.0003760724142
-0.0006958757173
-0.000396859635
-0.0004256638532
-0.0003712340127
-0.0002050428222
-0.0002988072863
-5.989210547e-05
-0.0001892359304
-5.350442469e-07
-6.715417863e-05
2.133066627e-05
-0.0001227949941
0.000204647893
-0.0004144996127
0.000527341905
-0.0008077500844
0.0007306536448
-0.001245763505
0.0008195726876
-0.001682799146
0.0008178032061
-0.002082177798
0.0007449108427
-0.00241442913
0.0006158596544
-0.002655885133
0.0004420946159
-0.00278828781
0.0002340014763
-0.002799824502
3.851985544e-06
-0.002685565248
-0.0002346184506
-0.002450975668
-0.0004612904635
-0.002112601166
-0.0006542041776
-0.001699240617
-0.000789432938
-0.001251100705
-0.0008449995455
-0.0008163662098
-0.0008059685133
-0.000444486028
-0.0006706874818
-0.0001762206878
-0.0004575012923
-3.222637393e-05
-0.0002111484347
-1.08957294e-05
-0.000171870838
0.0003765185493
-0.0005718792415
0.0009273502913
-0.001104671757
0.001263446259
-0.001696083912
0.001410984822
-0.002288022899
0.001409742094
-0.002834152099
0.001291040036
-0.003296722735
0.001078430332
-0.003644568598
0.0007899404605
-0.003852561901
0.0004419947416
-0.003902170937
5.346100463e-05
-0.003784386336
-0.0003524030181
-0.003501083463
-0.0007445932786
-0.003068847931
-0.001086439663
-0.002520772009
-0.001337508825
-0.001906697824
-0.001459073682
-0.001290107822
-0.001422558448
-0.0007403505067
-0.001220444747
-0.0003201263691
-0.0008777254487
-7.108184336e-05
-0.0004601929384
-8.1977575e-05
-0.0002167617958
0.0005932803812
-0.0007179874976
0.001428576109
-0.001384059218
0.0019295179
-0.002124729689
0.002151655174
-0.002871225727
0.002156238118
-0.00356940097
0.00198921534
-0.004174694095
0.001683723473
-0.004648992986
0.001264239304
-0.004959500438
0.0007525021758
-0.005079414603
0.0001733752201
-0.004990703468
-0.0004411140736
-0.004687317824
-0.001047978858
-0.004180226766
-0.001593530675
-0.0035017633
-0.002015972248
-0.002708517182
-0.002252319736
-0.00188030372
-0.002250771831
-0.001112519622
-0.001988228777
-0.000500518896
-0.00148972617
-0.0001190755824
-0.0008416362143
-0.0002010531474
-0.0002570761469
0.0008503566202
-0.0008503979642
0.002021897919
-0.0016405197
0.002719639532
-0.002523892453
0.003035027902
-0.003423392411
0.003055738139
-0.004279149397
0.002844972352
-0.005041405674
0.002445979722
-0.005665830178
0.00188866379
-0.006111391233
0.001198063272
-0.006340660546
0.0004026446001
-0.006322764413
-0.0004590101417
-0.006037827572
-0.001332915641
-0.005484267595
-0.002147090589
-0.004686642895
-0.002813596885
-0.003703177884
-0.003235784672
-0.00262942796
-0.003324521688
-0.00159319163
-0.003024465051
-0.0007359188459
-0.002346998921
-0.0001820055321
-0.001395549473
-0.0003830586588
-0.0002908926458
0.001141249201
-0.0009631746267
0.002694179871
-0.001862361575
0.003618826523
-0.002875432312
0.004048098687
-0.003919878621
0.004100184482
-0.004932650743
0.003857744463
-0.0058609271
0.003374256077
-0.006655611876
0.002683348603
-0.007267818594
0.001810270055
-0.007648324293
0.0007831503442
-0.00775033023
-0.0003570041776
-0.007534678839
-0.001548566993
-0.006979462631
-0.002702306721
-0.00609194958
-0.003701109843
-0.004922656119
-0.00440507804
-0.00357730415
-0.004669873594
-0.002219053589
-0.004382715578
-0.001050215178
-0.00351583728
-0.0002683036742
-0.002177460905
-0.0006513623198
-0.000315706161
0.001456955302
-0.001047877745
0.003426351509
-0.002032883277
0.004603832157
-0.003152401256
0.005167616684
-0.004321804737
0.005269587961
-0.005477789562
0.005013729295
-0.006567278577
0.004463745141
-0.007539035655
0.003655105749
-0.008338467708
0.002609702157
-0.008905704686
0.001350387344
-0.009177476884
-8.523196208e-05
-0.009091947348
-0.001634096489
-0.008599951256
-0.003194302744
-0.007680161
-0.004620900008
-0.00636077238
-0.005724466577
-0.004743597876
-0.006287048046
-0.003021318828
-0.006104994589
-0.00146881045
-0.005068345592
-0.0003880335901
-0.003258237685
-0.001039395918
-0.0003290013769
0.001785956724
-0.001095775502
0.004193125695
-0.002133769542
0.005641826253
-0.003323347661
0.006357194777
-0.004580936298
0.006527176623
-0.005846040674
0.006278833727
-0.007068740566
0.005686445096
-0.008199623223
0.004785988458
-0.009182828282
0.003592907229
-0.009952368937
0.002119927991
-0.01043157
0.0003939690956
-0.01053789841
-0.001527768045
-0.01019095079
-0.003541250305
-0.009330403058
-0.005481447671
-0.007943486943
-0.007111382632
-0.006103475817
-0.008127059135
-0.004011276497
-0.008197193859
-0.002013731528
-0.00706589049
-0.000552552184
-0.004719416961
-0.001591948145
-0.0003296926425
0.00211564943
-0.001101317057
0.004964750107
-0.002150619013
0.006691128236
-0.003359788631
0.007566364379
-0.004649075367
0.007816463419
-0.005963763675
0.007593522109
-0.007260854212
0.006983535673
-0.008497811634
0.00602294591
-0.009624125038
0.004719220643
-0.010575662
0.003071464944
-0.01127165593
0.001089963003
-0.01161524938
-0.001184174592
-0.01149880499
-0.00365769466
-0.01081783419
-0.006162418438
-0.009500541819
-0.008428674967
-0.007558531968
-0.01006906896
-0.00515934982
-0.01059637595
-0.002695253342
-0.009529986911
-0.0007738786692
-0.006640791591
-0.002365826881
-0.0003199485264
0.002435597979
-0.001066650285
0.00571145185
-0.002080251086
0.007704729083
-0.003246448056
0.008732561354
-0.00449173941
0.009061754833
-0.005770138787
0.008871921543
-0.007049478348
0.008262875247
-0.008299669089
0.007273136665
-0.009483445324
0.005902996903
-0.01054914216
0.004137161786
-0.01142481785
0.00196563867
-0.01201333638
-0.0005956560941
-0.0121928581
-0.003478172958
-0.01181988282
-0.00653539372
-0.01075415373
-0.009494404042
-0.008912489211
-0.01191073346
-0.006369754564
-0.01313911056
-0.003498237332
-0.01240150412
-0.001062889195
-0.009076139722
-0.003428716144
-0.0003075442838
0.002743142265
-0.001006929524
0.006410837101
-0.001938877175
0.008636676799
-0.00299255613
0.00978624029
-0.004103581892
0.01017278061
-0.005238335055
0.01000667474
-0.006379656929
0.009404197128
-0.007515281429
0.00840876116
-0.008628701081
0.007016416563
-0.009691350117
0.005199810824
-0.01065469987
0.002928988418
-0.01143906945
0.0001887134527
-0.01193072524
-0.002986517212
-0.01196587741
-0.006500241591
-0.0113441451
-0.01011613637
-0.00986890107
-0.01338597748
-0.007459729663
-0.01554828196
-0.004363407389
-0.01549782637
-0.00142532877
-0.01201421831
-0.004854044919
-0.0003091782773
0.003052320549
-0.0009562776568
0.007057936483
-0.001769698625
0.009450097834
-0.002641065131
0.01065760676
-0.003520357666
0.01105207311
-0.004392202891
0.01087851997
-0.005259555415
0.01027154968
-0.006132678257
0.009281883999
-0.007021147035
0.00790488531
-0.007926960572
0.006105624301
-0.008835920106
0.003837947908
-0.009707809719
0.00106060303
-0.0104540269
-0.002240300067
-0.01092690736
-0.006027361156
-0.01089711303
-0.0101459307
-0.01006616753
-0.01421692293
-0.008157836468
-0.017456613
-0.005167657387
-0.01848800542
-0.001854251803
-0.01532762387
-0.006708296671
-0.0003556159653
0.003407936529
-0.0009743604749
0.007676680963
-0.001647868875
0.01012360631
-0.002271286822
0.01128102472
-0.002820108534
0.01160089479
-0.003307560086
0.01136597151
-0.0037637712
0.01072776077
-0.004225684393
0.009743797185
-0.004731186824
0.008410387709
-0.005314955455
0.006689392882
-0.006001858851
0.004524851255
-0.006796842717
0.001855586867
-0.007665287749
-0.001371855059
-0.008507177414
-0.005185471485
-0.009116556919
-0.009536551135
-0.009144940243
-0.01418853955
-0.008129827634
-0.0184717256
-0.005711703341
-0.02090612971
-0.002318342167
-0.01872098507
-0.009026638753
-0.0005007856608
0.003908722207
-0.001152545859
0.008328441127
-0.001677073775
0.01064813427
-0.001984892892
0.01158884394
-0.002099823971
0.01171582592
-0.002080628785
0.01134677635
-0.001993915701
0.01064104763
-0.001906974929
0.009656856384
-0.001884937548
0.008388350295
-0.001991998541
0.006796453869
-0.002288359971
0.00482121267
-0.002824376688
0.002391603567
-0.003627377695
-0.0005688540757
-0.004673520925
-0.004139328251
-0.00583860025
-0.008371471712
-0.006810736983
-0.01321640272
-0.007018714509
-0.01826374801
-0.005717395796
-0.02220744844
-0.002739798476
-0.02169858244
-0.0117664372
-0.0008313028293
0.004740025071
-0.001606148121
0.009103286441
-0.001953408054
0.01099539417
-0.001842946692
0.01147838264
-0.001390021
0.01126290037
-0.0007235393246
0.01068029479
4.219900334e-05
0.009875309258
0.0008101321364
0.008888923244
0.001489038793
0.007709443626
0.001992255526
0.006293237165
0.002232661605
0.004580806617
0.002122928798
0.002501336371
0.001578179581
-2.410487604e-05
0.0005406092725
-0.003101757909
-0.0009881086069
-0.006842753745
-0.00283146868
-0.01137304261
-0.004461375411
-0.01663384126
-0.004811706473
-0.02185711754
-0.00294465485
-0.02356563385
-0.014711092
-0.001466018202
0.006206043295
-0.00238100477
0.01001827311
-0.002375625762
0.01099001506
-0.001606841384
0.01070959812
-0.0003539586951
0.01001001799
0.001158486102
0.009167850172
0.002766144604
0.008267650792
0.004343559328
0.007311508556
0.005785658556
0.006267344432
0.006992292664
0.005086603091
0.007860183201
0.00371291611
0.008277481821
0.002084037748
0.00811964698
0.000133729959
0.007260883568
-0.002242994465
0.005582169077
-0.005164039135
0.003071440649
-0.008862314143
7.737551261e-05
-0.01363977619
-0.002446824355
-0.01933291752
-0.00260146207
-0.02341099611
-0.01731255408
-0.00236563963
0.008571682825
-0.002964428654
0.0106170622
-0.0019242153
0.009949801987
7.877902809e-05
0.008706603685
0.002531636144
0.007557161016
0.005136216484
0.00656326991
0.007715149036
0.00568871827
0.01014970979
0.004876947834
0.01234462921
0.004072425036
0.01420727267
0.003223959643
0.01563622408
0.002283964709
0.016513827
0.001206434853
0.0166938555
-4.629851068e-05
0.01602447724
-0.0015736161
0.01430296693
-0.003442528747
0.01133115632
-0.005890503654
0.007054283605
-0.009362903206
0.002200800097
-0.01447943394
-0.001027679193
-0.02018251677
-0.01834023326
-0.002150252517
0.01072193511
-7.199644387e-05
0.008538807095
0.003741539114
0.006136265822
0.00771882369
0.00472931952
0.0115602175
0.003715767388
0.01513867617
0.002984811267
0.01839597177
0.002431422678
0.02129831691
0.001974602744
0.0238090741
0.001561667919
0.02587648191
0.001156551906
0.02742761265
0.0007328340308
0.02836219712
0.0002718504039
0.02857364331
-0.0002577446579
0.02788617802
-0.0008861506905
0.02609827991
-0.001654630533
0.02290751911
-0.002699742709
0.01790640687
-0.004361790808
0.01076653709
-0.007339564097
0.002912019351
-0.012327999
-0.01542821387
0.01072193521
0.01926074202
0.02539700791
0.03012632754
0.03384209501
0.03682690633
0.03925832905
0.04123293185
0.0427945998
0.0439511517
0.04468398573
0.04495583621
0.04469809163
0.04381194104
0.0421573105
0.03945756779
0.03509577699
0.0277562129
0.01542821389
)
;

boundaryField
{
    movingWall
    {
        type            calculated;
        value           uniform 0;
    }
    fixedWalls
    {
        type            calculated;
        value           uniform 0;
    }
    frontAndBack
    {
        type            empty;
    }
}


// ************************************************************************* //
