/*--------------------------------*- C++ -*----------------------------------*\
  =========                 |
  \\      /  F ield         | OpenFOAM: The Open Source CFD Toolbox
   \\    /   O peration     | Website:  https://openfoam.org
    \\  /    A nd           | Version:  13
     \\/     M anipulation  |
\*---------------------------------------------------------------------------*/
FoamFile
{
    format      ascii;
    class       surfaceScalarField;
    location    "18";
    object      phi;
}
// * * * * * * * * * * * * * * * * * * * * * * * * * * * * * * * * * * * * * //

dimensions      [0 3 -1 0 0 0 0];

internalField   nonuniform List<scalar> 
760
(
2.333004035e-06
-2.334088291e-06
-3.865849448e-05
4.099146721e-05
-0.0001237861558
8.512890556e-05
-0.000238580044
0.0001147941627
-0.0003685193882
0.0001299399078
-0.000501380372
0.0001328604806
-0.0006264824363
0.0001251024272
-0.000733533538
0.0001070517692
-0.000812086849
7.855377653e-05
-0.0008520108544
3.992519076e-05
-0.0008449864007
-7.024245872e-06
-0.0007867672373
-5.821974641e-05
-0.0006795779032
-0.0001071898576
-0.0005338585515
-0.0001457195721
-0.000368377133
-0.00016548195
-0.0002079622078
-0.0001604154858
-7.870860621e-05
-0.0001292535357
-1.24111337e-06
-7.746722995e-05
1.795909025e-05
-1.920020503e-05
1.79593929e-05
-4.37905966e-05
4.145711858e-05
-0.0001907702606
0.0001879728706
-0.0004293605251
0.0003237212394
-0.0007297736842
0.0004152068517
-0.001060949986
0.0004611159936
-0.001394464484
0.0004663740275
-0.001704073699
0.0004347118204
-0.001964444389
0.0003674253785
-0.002150882824
0.0002649939252
-0.002240818828
0.0001298613602
-0.002217076354
-3.076782504e-05
-0.002072246631
-0.0002030502285
-0.001813205947
-0.0003662322342
-0.001464078937
-0.00049484796
-0.001066099626
-0.0005634610841
-0.0006728722043
-0.0005536420844
-0.0003405328748
-0.0004615926189
-0.0001138001358
-0.0003042000032
-1.033623964e-05
-0.0001226619708
7.623457378e-06
-0.0001002757453
0.0001417334241
-0.0003635634166
0.0004512623881
-0.0007484643097
0.0007086232519
-0.001211096066
0.0008778382571
-0.001709326623
0.0009593449782
-0.002204241673
0.0009612902495
-0.002659250636
0.0008897225811
-0.003038965177
0.000747142119
-0.003309397883
0.0005354280005
-0.003440132148
0.0002605947472
-0.003408388462
-6.251450105e-05
-0.003204316976
-0.000407122513
-0.002836423445
-0.0007341252378
-0.002335523219
-0.0009957483162
-0.001755275679
-0.00114370925
-0.001167228668
-0.00114168889
-0.0006490382243
-0.0009797823642
-0.0002666511935
-0.0006865853758
-5.461783835e-05
-0.000334693435
-4.699431043e-05
-0.0001534233238
0.0002951580312
-0.0005282625293
0.0008261034228
-0.001051162248
0.001231522163
-0.001661859775
0.001488534398
-0.002308509591
0.001605993898
-0.002945000005
0.001597781805
-0.0035282758
0.001472999573
-0.00401660891
0.001235474747
-0.004369681904
0.0008885005815
-0.00455082891
0.0004417415076
-0.004531280611
-8.206339823e-05
-0.004295925596
-0.0006424775864
-0.00384978694
-0.001180264447
-0.003223841468
-0.001621693934
-0.002478024602
-0.001889525054
-0.001698358654
-0.001921352893
-0.0009851988323
-0.001692940972
-0.0004320687542
-0.001239714763
-0.0001003698759
-0.0006663926558
-0.0001473641994
-0.0002010412108
0.0004961989792
-0.0006778099952
0.001302871739
-0.001327488132
0.001881199327
-0.002073721866
0.002234766336
-0.002856092547
0.002388363263
-0.003623596831
0.002365285129
-0.004329593991
0.002178997836
-0.004928741444
0.001834622567
-0.005376237522
0.001335996381
-0.005629438893
0.000694941522
-0.005651727996
-5.977467012e-05
-0.0054184967
-0.0008757081959
-0.004925009294
-0.001673752639
-0.004195221915
-0.002351481585
-0.003289353251
-0.002795393035
-0.002305882806
-0.002904822637
-0.001372209948
-0.002626612197
-0.0006200616976
-0.001991863434
-0.0001500686578
-0.001136385662
-0.000297432964
-0.0002424971376
0.0007386964548
-0.0008089531423
0.001869327226
-0.001571282521
0.002643526009
-0.002439062358
0.003102544051
-0.003345048734
0.003294350252
-0.004235509658
0.00325574663
-0.005062707203
0.003006196069
-0.005780018664
0.002551933014
-0.006339715714
0.001895693468
-0.006693301055
0.001048525977
-0.006794390298
4.131354687e-05
-0.006604544508
-0.001065555339
-0.00610247401
-0.002175825737
-0.005296625524
-0.003157330356
-0.004239259023
-0.003852758295
-0.003036775343
-0.004107305948
-0.00184692979
-0.003816455598
-0.0008525570763
-0.002986236786
-0.0002111619041
-0.001777779393
-0.0005085944813
-0.000276934247
0.001015630002
-0.000918210899
0.002510602724
-0.001775455139
0.003500768861
-0.002746975296
0.004074063832
-0.003760857144
0.0043082326
-0.004762863482
0.004257753719
-0.005706615616
0.003949948726
-0.006546673893
0.003391989524
-0.007234415524
0.002583434725
-0.007716523811
0.001530632394
-0.007936228428
0.0002610152412
-0.007838215748
-0.001163571245
-0.007378479163
-0.002635564741
-0.006540380678
-0.003995428353
-0.005356335688
-0.005036800837
-0.003930209311
-0.005533429972
-0.002447854421
-0.005298807719
-0.001155635955
-0.004278454889
-0.0002929591032
-0.002640455498
-0.0008015536508
-0.000303153484
0.001318782965
-0.001001330556
0.00320877828
-0.001931184851
0.004430623011
-0.002982627508
0.005125508243
-0.004081240744
0.005406846722
-0.005174485256
0.005350998586
-0.00621988346
0.004995347011
-0.007176064796
0.004348169347
-0.00799654893
0.003403918539
-0.008626000117
0.00216008059
-0.008999162866
0.0006341736513
-0.009043730445
-0.001119006969
-0.008689254217
-0.002990039505
-0.007884891252
-0.004799788216
-0.006627959734
-0.006293729919
-0.005001087133
-0.007160300234
-0.003204948318
-0.007094946567
-0.001555504505
-0.005927898813
-0.0004059276197
-0.003790035012
-0.001207483655
-0.00032011836
0.001638901448
-0.001054400927
0.00394306101
-0.002029536804
0.005405759073
-0.003129410545
0.006225383164
-0.004278947403
0.006556384235
-0.005429344652
0.006501395359
-0.006544617397
0.00611061899
-0.007590819143
0.005394370305
-0.008527830659
0.004340930683
-0.009303287802
0.002935535593
-0.009848708656
0.00117959233
-0.01007907522
-0.0008886420132
-0.009898494538
-0.003170617429
-0.009216184152
-0.00548209577
-0.007978423774
-0.007531489626
-0.006219890912
-0.008918832889
-0.004126718524
-0.009188122649
-0.002074139401
-0.007980480239
-0.0005615600932
-0.00530261806
-0.001769046028
-0.0003279128657
0.001966814077
-0.001076174373
0.004691322869
-0.002064987305
0.006394571732
-0.003173587881
0.007333983522
-0.004327666794
0.007710463456
-0.005484029564
0.007657758275
-0.006615765268
0.007242355299
-0.0076999983
0.00647860488
-0.008708098343
0.005349032885
-0.009597595865
0.003825031613
-0.0103054296
0.001887425895
-0.01074320713
-0.0004508632929
-0.01079735437
-0.003116469164
-0.01033853192
-0.005940918993
-0.009250631584
-0.008619391344
-0.007490228191
-0.01067923749
-0.005182142515
-0.01149621004
-0.002721795125
-0.01044082914
-0.0007719795384
-0.007252433478
-0.002541023208
-0.0003291743196
0.002295988366
-0.001071442192
0.00543359017
-0.002040461327
0.007363589711
-0.003110875329
0.008404396641
-0.004210478289
0.008810066414
-0.005303757947
0.008751039499
-0.006375537295
0.008314137959
-0.007417644067
0.007520715089
-0.008418243672
0.006349634811
-0.009352523144
0.004759310129
-0.01017365783
0.002708559292
-0.01080358598
0.0001790657285
-0.01112602578
-0.002794029486
-0.01098487059
-0.006082073913
-0.01020170567
-0.009402554398
-0.008630943783
-0.01224999887
-0.006278521902
-0.01384862968
-0.003483922204
-0.01323543052
-0.001048318242
-0.009688040285
-0.003589340934
-0.0003311171148
0.002627105153
-0.001055355147
0.006157826632
-0.001973248457
0.008281481254
-0.002953701344
0.009384848858
-0.003928981159
0.00978534613
-0.004874502643
0.00969656293
-0.005789966749
0.009229606725
-0.006685244089
0.008415996227
-0.007569760188
0.007234150633
-0.008443167114
0.005632717119
-0.00928529149
0.003550685623
-0.01004409975
0.0009378763622
-0.01062049539
-0.002217634101
-0.01085498434
-0.005847584162
-0.01052417688
-0.009733360812
-0.009374963456
-0.01339921378
-0.007242372224
-0.0159812215
-0.004302021738
-0.0161757848
-0.001396460097
-0.01259360969
-0.004985803018
-0.0003484800021
0.002975584063
-0.00105861379
0.006867958427
-0.00190068071
0.00912354659
-0.002736793699
0.01022096186
-0.003509468511
0.01055802146
-0.004211160378
0.01039825644
-0.004860836668
0.009879285736
-0.005489358244
0.009044521031
-0.006130052554
0.007874845396
-0.006810896461
0.00631356132
-0.007545482757
0.00428527408
-0.008320223291
0.001712618748
-0.009075083122
-0.001462772704
-0.009677900028
-0.005244765005
-0.009896886077
-0.009514375888
-0.009395991881
-0.01390010988
-0.007815725041
-0.01756148893
-0.005052712395
-0.01893879471
-0.001808289944
-0.01583803203
-0.006794088872
-0.0004081711398
0.003383754352
-0.001133260527
0.007593046041
-0.001883184899
0.009873469463
-0.002516491498
0.01085426819
-0.002999443172
0.01104097364
-0.003352815886
0.010751631
-0.003621305528
0.01014777641
-0.003859360856
0.009282577105
-0.00412449526
0.008139981053
-0.004472657923
0.006661727218
-0.004952335452
0.004764953835
-0.005594317693
0.002354599538
-0.006393204908
-0.0006638854081
-0.007275610471
-0.00436235951
-0.008051631841
-0.008738357287
-0.008361021599
-0.01359072221
-0.007676438883
-0.01824607385
-0.005533403246
-0.02108183053
-0.002246593674
-0.01912484269
-0.009040685881
-0.0005559475134
0.003939701702
-0.001356346641
0.008393444065
-0.001997201481
0.01051432248
-0.002351897682
0.01120896187
-0.00243920672
0.011128282
-0.002327066975
0.01063949398
-0.002094650115
0.009915361029
-0.001822051059
0.009009977884
-0.00158886336
0.007906792816
-0.001474513224
0.006547377792
-0.001557220436
0.004847660466
-0.001909054607
0.002706432868
-0.002583357621
1.042205822e-05
-0.003586355577
-0.003359359448
-0.004820170704
-0.007504543091
-0.005984958997
-0.01242593973
-0.006474348541
-0.01775669076
-0.005458079237
-0.02209810069
-0.002620632899
-0.02196228421
-0.01166131648
-0.0008582669128
0.004797968281
-0.001816237687
0.009351413812
-0.002289446156
0.01098752896
-0.002229180667
0.01114869302
-0.001764473264
0.01066357502
-0.001037898503
0.00991292187
-0.0001720719063
0.009049536796
0.0007275945294
0.008110310948
0.00156465592
0.007069731234
0.002244320776
0.005867714333
0.002668627964
0.004423354156
0.002735088912
0.002639972697
0.002340711353
0.0004047983046
0.001398536028
-0.002417190262
-0.0001154749854
-0.005990531291
-0.002048004962
-0.01049340294
-0.003858200438
-0.01594648891
-0.004456410276
-0.02149989037
-0.002747490687
-0.02367120927
-0.01440880427
-0.001379153146
0.006177120605
-0.002521244657
0.01049350337
-0.002585349505
0.01105163413
-0.001803197125
0.01036653999
-0.0005175914274
0.009377969291
0.001029868684
0.008365462547
0.002676404574
0.007402999445
0.004302326181
0.006484387877
0.005807840764
0.00556421864
0.007096709645
0.004578847857
0.008065718914
0.003454344756
0.008598175412
0.002107516621
0.008560027109
0.0004429428972
0.007803200325
-0.001660367631
0.006186922978
-0.004374259575
0.003665651654
-0.007972135586
0.0005448091323
-0.01282564649
-0.002074381521
-0.01888070422
-0.002323104054
-0.02342248038
-0.01673191129
-0.002139171172
0.008316291178
-0.00296234091
0.01131667187
-0.001789924786
0.009879220048
0.0003528208632
0.008223797115
0.002848767879
0.006882023139
0.005417070048
0.005797159402
0.007912370258
0.004907697512
0.01024362154
0.004153137622
0.01234021912
0.003467622201
0.01412913587
0.002789928124
0.01552264586
0.002060833788
0.0164109865
0.001219182863
0.01665323606
0.0002006918946
0.01607280739
-0.00107993668
0.01444969147
-0.002751141624
0.01154470049
-0.005067147881
0.007267437464
-0.008548380033
0.002313667574
-0.01392692863
-0.0009433425242
-0.02016546338
-0.01767525584
-0.002472223045
0.01078851505
2.342345542e-06
0.008842103765
0.004171600445
0.005709959574
0.008278955397
0.004116441497
0.01201700834
0.003143971966
0.01536347222
0.002450696485
0.01832656853
0.001944600473
0.02091889557
0.001560810254
0.02314190796
0.001244611619
0.02497718456
0.0009546518825
0.02638019348
0.0006578211972
0.02727172104
0.0003276531169
0.02753190422
-5.949271876e-05
0.02699529219
-0.0005433222854
0.02541638343
-0.001172233358
0.02243217962
-0.002082944426
0.01753588126
-0.003652074597
0.01034349922
-0.006734552358
0.00243873486
-0.01226069831
-0.01523652258
0.01078851592
0.01963062035
0.02534057926
0.02945702106
0.03260099285
0.03505168808
0.03699628831
0.03855710063
0.03980171344
0.04075636502
0.04141418816
0.04174184029
0.0416823443
0.04113902197
0.03996678682
0.03788384245
0.03423176925
0.02749721761
0.01523652169
)
;

boundaryField
{
    movingWall
    {
        type            calculated;
        value           uniform 0;
    }
    fixedWalls
    {
        type            calculated;
        value           uniform 0;
    }
    frontAndBack
    {
        type            empty;
    }
}


// ************************************************************************* //
