/*--------------------------------*- C++ -*----------------------------------*\
  =========                 |
  \\      /  F ield         | OpenFOAM: The Open Source CFD Toolbox
   \\    /   O peration     | Website:  https://openfoam.org
    \\  /    A nd           | Version:  13
     \\/     M anipulation  |
\*---------------------------------------------------------------------------*/
FoamFile
{
    format      ascii;
    class       surfaceScalarField;
    location    "18";
    object      phi_0;
}
// * * * * * * * * * * * * * * * * * * * * * * * * * * * * * * * * * * * * * //

dimensions      [0 3 -1 0 0 0 0];

internalField   nonuniform List<scalar> 
760
(
2.045138381e-06
-2.046841609e-06
-3.858870889e-05
4.063387379e-05
-0.0001226307594
8.4043975e-05
-0.0002358060365
0.0001131758807
-0.0003637928621
0.0001279876709
-0.0004945359166
0.0001307423039
-0.0006175276484
0.0001229921073
-0.000722687599
0.0001051607162
-0.0007998243763
7.713712256e-05
-0.0008390741659
3.925122861e-05
-0.0008323371762
-6.736753447e-06
-0.0007754587546
-5.687914805e-05
-0.0006705584486
-0.0001049008043
-0.000527744698
-0.0001428136612
-0.0003652650362
-0.0001624799666
-0.0002073566703
-0.0001579088902
-7.962902106e-05
-0.0001277274921
-2.516847332e-06
-7.711182255e-05
1.723323534e-05
-1.975011979e-05
1.723347622e-05
-4.329826288e-05
4.125233671e-05
-0.0001881057182
0.0001854441411
-0.0004230405992
0.0003189822166
-0.0007187114931
0.000408846285
-0.00104450701
0.0004537828662
-0.001372444621
0.0004586783058
-0.001676751155
0.0004272982816
-0.001932623079
0.0003610360903
-0.002115937237
0.0002604530639
-0.002204652097
0.0001279661011
-0.002181960175
-2.943001239e-05
-0.002040532007
-0.0001983077149
-0.001786939836
-0.0003584944385
-0.001444597337
-0.0004851571976
-0.001053706045
-0.0005533702404
-0.000666722457
-0.0005448908557
-0.0003388230779
-0.0004556265055
-0.0001142784481
-0.0003016568719
-1.107265949e-05
-0.0001229536262
6.160452506e-06
-9.864265082e-05
0.0001398959856
-0.0003575765374
0.0004443810164
-0.0007360509659
0.0006974583723
-0.001190892049
0.000863686866
-0.001680633868
0.0009435221507
-0.002167009765
0.0009450551738
-0.002614115814
0.0008744061097
-0.002987307635
0.0007342304576
-0.003253354872
0.0005265018749
-0.003382503453
0.0002571136152
-0.00335240244
-5.953466826e-05
-0.00315325957
-0.0003974508635
-0.002793172955
-0.0007185792995
-0.002302060515
-0.0009762687738
-0.001732275424
-0.001123155584
-0.001153864031
-0.001123302172
-0.0006431319601
-0.0009663583832
-0.0002652384643
-0.0006795489502
-5.486210764e-05
-0.0003333288305
-4.870217155e-05
-0.0001506061003
0.0002905039675
-0.0005188624985
0.000812640062
-0.001032657677
0.001211252165
-0.001632780985
0.00146380794
-0.002268242332
0.001578981909
-0.00289371769
0.001570531845
-0.003466964423
0.001447654249
-0.003947110687
0.001214375826
-0.00429468205
0.0008740725606
-0.004473733233
0.0004361646921
-0.004455962564
-7.730578404e-05
-0.004226351417
-0.000627061522
-0.003789547275
-0.001155383653
-0.003175630896
-0.001590184927
-0.002443146357
-0.001855638715
-0.001676381109
-0.00189006529
-0.0009739432411
-0.001668795258
-0.0004280875899
-0.001225404867
-9.992039108e-05
-0.0006614977565
-0.0001486227749
-0.0001971914024
0.000487695023
-0.0006654735949
0.001280921271
-0.001303815753
0.001849592679
-0.002037226213
0.002197215807
-0.002806285106
0.00234803897
-0.003560850631
0.002325096031
-0.004255135924
0.002141941011
-0.00484467707
0.001803917402
-0.005285525747
0.001314920816
-0.005535777143
0.0006864141954
-0.005559334758
-5.374878436e-05
-0.00533180005
-0.0008545950997
-0.004848237336
-0.001638947138
-0.004131890904
-0.002306531494
-0.003241679831
-0.002745849098
-0.002274221892
-0.002857522738
-0.001354745058
-0.002588270108
-0.0006130515254
-0.001967099907
-0.000148810283
-0.001125739152
-0.000297433241
-0.0002379278478
0.0007256232714
-0.0007946267746
0.001837619182
-0.001544168732
0.002599130962
-0.002397701596
0.003050745921
-0.003289056536
0.00323939511
-0.004165371634
0.00320141215
-0.004979731115
0.002956301468
-0.00568633596
0.002510520603
-0.006238254329
0.001866838862
-0.006587706553
0.001035864777
-0.006688886339
4.742930319e-05
-0.006503737477
-0.001039745581
-0.006011058683
-0.002131629029
-0.005218940435
-0.003098649622
-0.004178643787
-0.003786143801
-0.002994768623
-0.004041397146
-0.001822540122
-0.003760495451
-0.0008420717242
-0.002947569377
-0.0002089626385
-0.001758845992
-0.000506395671
-0.0002721091221
0.0009977313429
-0.0009032551196
0.002468763645
-0.001747333168
0.003443207607
-0.002704286287
0.004007699044
-0.003703276876
0.004238386919
-0.004690889479
0.004189025912
-0.005621476324
0.003886888784
-0.006450299594
0.003339340841
-0.007129408494
0.002545946658
-0.007606122439
0.0015125757
-0.007824266148
0.0002655690461
-0.007729061983
-0.001134953425
-0.007276923167
-0.002583770226
-0.006451339063
-0.003924232277
-0.005284264833
-0.004953213979
-0.003878141461
-0.005447516437
-0.00241619577
-0.00522243708
-0.001141281011
-0.004222483414
-0.0002896570663
-0.00261046951
-0.000796053284
-0.0002986547273
0.001296385344
-0.0009874229912
0.003157530277
-0.001905032604
0.004360817879
-0.002942926644
0.005045596183
-0.004027694849
0.005323156667
-0.005107532103
0.005268863451
-0.006140559709
0.00491991598
-0.00708593204
0.004284710371
-0.007897644746
0.003357658504
-0.008520827467
0.002135754165
-0.008890726029
0.000635462087
-0.00893562254
-0.001090060557
-0.008585744239
-0.002933645483
-0.007790890226
-0.004719081297
-0.006548665243
-0.006195434858
-0.004941066688
-0.0070551109
-0.003166567588
-0.00699693627
-0.001537138473
-0.005851912749
-0.0004013652831
-0.003746247602
-0.001197422034
-0.0003165900396
0.001612975749
-0.001043374694
0.003884315968
-0.002008604927
0.005326049304
-0.003097425495
0.006134418868
-0.004235639965
0.006461371991
-0.005375072705
0.006408295112
-0.006480186191
0.006025027878
-0.007517344017
0.005321866511
-0.008446640146
0.004286955284
-0.009215898693
0.002905009717
-0.009756894961
0.001176455799
-0.009985060365
-0.0008618969586
-0.009805246573
-0.003113454897
-0.009127707453
-0.005396615884
-0.00789982553
-0.007423315001
-0.00615682695
-0.008798108451
-0.004083784467
-0.009069983782
-0.002052219202
-0.007883481818
-0.0005556595067
-0.005242813051
-0.001753084888
-0.0003259741104
0.001938949821
-0.001069784579
0.004628127721
-0.002052403246
0.006308668216
-0.00315389842
0.007235913833
-0.004300659025
0.00760813276
-0.005450002533
0.007557638443
-0.006575312361
0.007150338146
-0.00765379423
0.006400349999
-0.008656727737
0.005289891524
-0.009541470914
0.00378975046
-0.01024483406
0.00187981882
-0.01067851756
-0.0004282117354
-0.01072949782
-0.003062472902
-0.01026958236
-0.005856531532
-0.009184408647
-0.00850848943
-0.0074324142
-0.01055010384
-0.005139168781
-0.01136323101
-0.002697825634
-0.01032482766
-0.0007648501547
-0.00717578823
-0.002517932271
-0.0003293105828
0.002268260619
-0.001071077553
0.005369894464
-0.002038733661
0.007276323003
-0.003107193603
0.008304372418
-0.004204716833
0.00870565571
-0.00529617377
0.008649097268
-0.006366534217
0.008220702811
-0.007407492855
0.007441312746
-0.008406832047
0.006289233449
-0.009339193889
0.004722110358
-0.01015718386
0.002697806682
-0.0107823594
0.0001969652616
-0.01109851703
-0.002746314541
-0.01095044822
-0.006004598378
-0.01016168189
-0.009297251609
-0.008589497127
-0.01212228721
-0.006242616328
-0.01371010846
-0.00346088235
-0.01310656435
-0.001040391803
-0.009596283859
-0.00355832399
-0.0003335707846
0.002601831136
-0.001061740431
0.006098062221
-0.001983743881
0.008198324018
-0.002968097716
0.009288725077
-0.003947232389
0.009684789864
-0.004896774934
0.009598642061
-0.005816421004
0.009140354741
-0.006715730734
0.008340626824
-0.007603529571
0.007177030971
-0.008478653119
0.005597233661
-0.009320015437
0.003539171897
-0.01007475929
0.0009517133936
-0.01064333168
-0.002177741107
-0.01086655494
-0.005781372753
-0.01052258614
-0.009641218306
-0.009361407719
-0.0132834675
-0.007222327879
-0.01584918983
-0.004284463516
-0.01604443432
-0.001388653707
-0.01249210583
-0.004946980981
-0.0003531600344
0.002954989722
-0.001071557412
0.006816456882
-0.001923170405
0.009049934589
-0.002769022148
0.01013457646
-0.003551399391
0.01046716715
-0.004262720325
0.01030996438
-0.004921768685
0.009799405813
-0.005558961935
0.008977823869
-0.00620693356
0.00782500256
-0.006892771561
0.006283071712
-0.007629070712
0.004275474035
-0.008401247858
0.00172389371
-0.00914844033
-0.001430545487
-0.009738151221
-0.005191657837
-0.009939252859
-0.009440117444
-0.009418017752
-0.01380470414
-0.007819436958
-0.01744777132
-0.005046029166
-0.01881783837
-0.001802136608
-0.01573599793
-0.006749112493
-0.0004145887748
0.003369577268
-0.001151477781
0.007553343306
-0.001915529194
0.009813983493
-0.002563538731
0.01078258499
-0.00306105988
0.01096468796
-0.003428483888
0.01067738996
-0.003710104665
0.01008102708
-0.003959837629
0.009227557106
-0.00423453888
0.008099704816
-0.004589416031
0.006637952639
-0.005072184784
0.004758245662
-0.005712852881
0.002364560341
-0.006505232374
-0.0006381649493
-0.007375226338
-0.004321663026
-0.008132616838
-0.008682729805
-0.008417972473
-0.01351935135
-0.007707102059
-0.01815864584
-0.005541897606
-0.02098304442
-0.002244169803
-0.01903372812
-0.008993287113
-0.0005631639826
0.00393274095
-0.001377346418
0.008367524015
-0.00203517281
0.01047180684
-0.002407777084
0.01115518504
-0.002512708348
0.01106961748
-0.002417115418
0.01058180013
-0.002199533867
0.009863446769
-0.001939469735
0.008967491767
-0.001715989008
0.007876222163
-0.001608052892
0.006530016602
-0.00169352994
0.004843721848
-0.002044204886
0.002715234872
-0.002713072347
3.070939412e-05
-0.003705783502
-0.003328948795
-0.004923610961
-0.007464903399
-0.00606602631
-0.012376945
-0.006527499599
-0.01769718207
-0.005482389408
-0.02202815526
-0.002624011189
-0.02189210132
-0.0116172959
-0.0008648549961
0.004797595447
-0.001836283551
0.009338950968
-0.002326711995
0.01096223242
-0.002285006577
0.01111347482
-0.001838564232
0.01062317519
-0.001128818766
0.009872057827
-0.0002775442692
0.009012174656
0.000610445122
0.008079500559
0.001439142383
0.007047523726
0.002113949798
0.005855211085
0.002536877502
0.004420795968
0.002605245567
0.002646868247
0.002215872106
0.0004200809154
0.001281889589
-0.002394974566
-0.0002200824636
-0.005962929063
-0.002135413208
-0.01046160405
-0.003922154605
-0.01591043238
-0.004491906565
-0.02145840471
-0.002757151937
-0.02362686292
-0.01437444392
-0.001383278301
0.006180872633
-0.002535754614
0.01049142483
-0.002614136675
0.01104061572
-0.00184821256
0.0103475503
-0.0005790048509
0.00935396738
0.000953236111
0.008339817335
0.002586730688
0.007378677196
0.004202471497
0.006463756875
0.005701063736
0.00554893383
0.006986376501
0.004569901532
0.007954974327
0.003452197679
0.008489784482
0.002112058383
0.008456341227
0.0004535194515
0.007706307421
-0.001644945757
0.00609903133
-0.004355661372
0.003589751988
-0.007952330312
0.0004856482164
-0.01280632851
-0.002111815301
-0.01886094843
-0.002335801336
-0.0234028674
-0.01671025073
-0.002139375416
0.008320247431
-0.002967591738
0.01131964055
-0.001803950187
0.009876978509
0.0003273136493
0.008216291181
0.002810640953
0.006870641589
0.005366567015
0.005783890052
0.007850817638
0.004894424219
0.01017313728
0.004141438592
0.01226348981
0.003458582621
0.01404906165
0.00278432528
0.01544183514
0.002059423016
0.01633174161
0.001222161701
0.01657762292
0.0002076362407
0.01600275055
-0.001070069708
0.01438719574
-0.002740104137
0.01149142473
-0.005056564212
0.00722485462
-0.00853975458
0.002284677696
-0.01392076199
-0.000955745243
-0.02016243539
-0.01766599773
-0.002470008517
0.01079025756
4.766418444e-06
0.008844863277
0.004171327115
0.005710416147
0.008272656535
0.004114961754
0.01200281206
0.003140489279
0.01534080622
0.002445897742
0.01829563661
0.001939592952
0.02088062347
0.001556451357
0.02309767583
0.001241532905
0.02492876373
0.0009532378706
0.02632996479
0.0006582165081
0.02722238027
0.0003297429918
0.02748582194
-5.58072025e-05
0.02695412601
-0.0005383702263
0.02538093968
-0.001166918453
0.02240356697
-0.002079190737
0.01751450313
-0.003650680275
0.01032886701
-0.006735133378
0.002429627599
-0.0122631949
-0.01523637269
0.01079025939
0.01963512433
0.02534553996
0.02946050243
0.03260099165
0.03504688764
0.03698648017
0.03854293422
0.0397844685
0.04073770558
0.0413959248
0.04172566693
0.04166985532
0.04113148508
0.03996456454
0.03788537378
0.03423469496
0.0274995627
0.01523637105
)
;

boundaryField
{
    movingWall
    {
        type            calculated;
        value           uniform 0;
    }
    fixedWalls
    {
        type            calculated;
        value           uniform 0;
    }
    frontAndBack
    {
        type            empty;
    }
}


// ************************************************************************* //
