/*--------------------------------*- C++ -*----------------------------------*\
  =========                 |
  \\      /  F ield         | OpenFOAM: The Open Source CFD Toolbox
   \\    /   O peration     | Website:  https://openfoam.org
    \\  /    A nd           | Version:  13
     \\/     M anipulation  |
\*---------------------------------------------------------------------------*/
FoamFile
{
    format      ascii;
    class       vectorField;
    location    "18";
    object      U_all;
}
// * * * * * * * * * * * * * * * * * * * * * * * * * * * * * * * * * * * * * //


400
(
(1.081397148e-05 -3.76731878e-05 0)
(-0.0006658788365 0.0004128226038 -1.543768935e-23)
(-0.002183704344 0.0009196346525 0)
(-0.004044350749 0.001311587803 0)
(-0.005966508815 0.001533627951 6.813999147e-25)
(-0.0077557405 0.001568373482 4.149704922e-24)
(-0.009276196064 0.001422249289 -7.264723004e-24)
(-0.01042678711 0.001118731337 7.646192522e-24)
(-0.0111274353 0.0006955199606 -2.105299417e-25)
(-0.01131811485 0.0002029754614 -4.010270046e-24)
(-0.01096375271 -0.0002999111492 5.821581094e-24)
(-0.01006580061 -0.0007468875308 -5.944976114e-23)
(-0.008675200872 -0.001074796144 -6.5702486e-23)
(-0.006900167154 -0.001232335256 -7.803820103e-23)
(-0.004909937706 -0.001192167962 4.587184197e-24)
(-0.002927943343 -0.0009618134213 -4.153547702e-24)
(-0.001206946577 -0.0005914945301 -2.010268279e-22)
(-2.085832807e-05 -0.0001704506992 0)
(0.0005168713829 0.0001713939501 1.565618674e-25)
(0.0002224226545 0.0003055229648 -3.290136887e-24)
(-0.0002631534085 0.000828454507 1.385256016e-25)
(-0.002700679145 0.003380730768 1.553445176e-23)
(-0.006900168409 0.005598889904 1.543813891e-25)
(-0.01193982224 0.007001032509 -8.450835165e-25)
(-0.01711711935 0.007546095247 1.155094728e-24)
(-0.02195261235 0.007287003519 1.296903601e-23)
(-0.0260842876 0.006316021379 1.489716317e-24)
(-0.02923685145 0.004750276976 -7.395153612e-24)
(-0.0311972156 0.002735565969 1.021474411e-23)
(-0.03181341811 0.0004532099214 4.527997583e-24)
(-0.03100151542 -0.001881082729 -6.338489685e-24)
(-0.02877091192 -0.00401825814 2.952472767e-24)
(-0.02525391778 -0.005702641154 3.903896465e-23)
(-0.02071971077 -0.006701660315 -1.961822538e-24)
(-0.01558246031 -0.006849264957 3.769633272e-24)
(-0.01038227396 -0.006094209159 -9.799622259e-23)
(-0.005730435234 -0.004544957929 9.698881663e-23)
(-0.002234916497 -0.002508093063 -4.072568941e-25)
(-0.0001832061177 -0.0005042488056 4.175279034e-25)
(8.322346212e-05 0.0006084320519 0)
(-0.0004183098442 0.002932293466 -2.909752357e-25)
(-0.004642555784 0.008794752255 1.703125983e-23)
(-0.01135895402 0.01322609227 -8.228801211e-24)
(-0.01930536589 0.01577496935 -2.057321757e-25)
(-0.02744338269 0.01651252748 2.02110614e-25)
(-0.03507928193 0.01562861428 9.683330242e-27)
(-0.04166889683 0.01334752883 -1.318738804e-24)
(-0.04678731943 0.009911904224 -4.618759517e-25)
(-0.05010012502 0.005599852954 -1.069594366e-23)
(-0.05136358621 0.0007472772525 0)
(-0.05043260524 -0.004234057008 0)
(-0.0472972951 -0.008875610616 2.680148532e-23)
(-0.04212654747 -0.0126678531 2.822579725e-23)
(-0.035289495 -0.01512162666 -1.653818189e-24)
(-0.02737295838 -0.01584886891 4.873956381e-23)
(-0.01916011991 -0.01466338956 9.476212298e-23)
(-0.01155647842 -0.01168781992 4.042934957e-23)
(-0.005464401924 -0.007449269384 4.368243179e-25)
(-0.001451510115 -0.002937758753 9.539497781e-26)
(-9.073018126e-05 0.0002236966137 0)
(-0.0005017746884 0.006038855679 -4.243637783e-23)
(-0.006394992804 0.01635249798 -1.693304211e-23)
(-0.0155165724 0.02353295964 8.155424674e-24)
(-0.02624848909 0.02741136571 0)
(-0.03724493873 0.02829081134 0)
(-0.04763736011 0.02656091137 0)
(-0.05673536984 0.02261042561 -4.8379445e-26)
(-0.06398711809 0.01682321769 -2.060146117e-24)
(-0.06894169981 0.00961825035 0)
(-0.07124002717 0.001496239358 1.659251094e-24)
(-0.07064415253 -0.0069230684 2.818332593e-25)
(-0.06707244326 -0.01491007175 -2.8262239e-25)
(-0.06064965572 -0.02164281752 0)
(-0.05176801695 -0.02629011288 4.160804999e-23)
(-0.04112080667 -0.02813635991 -4.708907871e-23)
(-0.02970045494 -0.02675381818 -2.796405739e-23)
(-0.01872630757 -0.02220192346 -4.029225254e-23)
(-0.009483296236 -0.01521306545 7.787356232e-25)
(-0.002975828786 -0.007298035669 9.702441447e-23)
(-0.0002317477658 -0.0008682786154 0)
(-0.0005308860733 0.01008358391 4.264284826e-23)
(-0.007974015862 0.02592256213 4.7791439e-25)
(-0.01937416766 0.03638768636 -4.669993463e-25)
(-0.0327862968 0.04180912364 0)
(-0.04659493249 0.04284957045 7.754377736e-25)
(-0.05978757483 0.04016097144 -7.646861886e-25)
(-0.07155800366 0.0343167803 3.656728833e-23)
(-0.08124557485 0.02583763992 1.831032899e-23)
(-0.08828051849 0.01526697 6.179989649e-24)
(-0.09216924999 0.003253288395 -1.661184164e-24)
(-0.0925218571 -0.009388450941 0)
(-0.0891002528 -0.02164528588 4.41167702e-25)
(-0.08189380825 -0.03233094598 1.02486409e-23)
(-0.07121418814 -0.04017286544 -4.378703419e-23)
(-0.05777796809 -0.04398200354 1.952955602e-24)
(-0.042756129 -0.04291521858 4.28808451e-23)
(-0.02773622543 -0.03680916227 -3.957685425e-25)
(-0.01454153542 -0.02651334975 0)
(-0.004856631341 -0.01408025025 5.428596235e-23)
(-0.0003638389946 -0.002848012562 -2.554534589e-22)
(-0.000526575859 0.01498208558 9.833701025e-23)
(-0.009367374613 0.03734765656 -4.904200786e-25)
(-0.02285667808 0.05164456017 0)
(-0.038788799 0.05887823918 0)
(-0.05532883205 0.0601938906 -8.717540027e-23)
(-0.07135667677 0.05656497662 -8.480986224e-23)
(-0.08598278241 0.0487600446 -4.050338519e-23)
(-0.0984587035 0.03741366484 -1.494936048e-23)
(-0.1080975679 0.02315088537 -5.316487945e-24)
(-0.1142464254 0.006718179762 -8.131673493e-24)
(-0.116309154 -0.01090805011 6.552305593e-24)
(-0.113804315 -0.02845065805 8.732545058e-24)
(-0.1064684516 -0.04432141065 -1.887896974e-23)
(-0.09439960882 -0.05669874654 4.203670959e-24)
(-0.07821385719 -0.06372832172 0)
(-0.05918885423 -0.0638858847 -1.611460047e-23)
(-0.03931390847 -0.05649970416 -1.134003973e-26)
(-0.02112822912 -0.04233343388 0)
(-0.007314008563 -0.02397154746 -1.510964797e-22)
(-0.0005211360489 -0.005924680008 6.03402329e-22)
(-0.0004986216423 0.02062250803 -9.76670292e-23)
(-0.01051903939 0.05039840797 2.829298191e-22)
(-0.02580429491 0.06905041654 1.525304372e-22)
(-0.04397923962 0.07841102302 3.614249504e-24)
(-0.06304865266 0.08021591806 -7.310890517e-23)
(-0.08183036191 0.07581168947 9.024122587e-23)
(-0.099391573 0.0661637076 -3.58246832e-24)
(-0.1149274331 0.05198293563 -1.723738424e-24)
(-0.1276508035 0.03391072788 2.515729051e-24)
(-0.1367438894 0.01271102314 7.34227838e-24)
(-0.1413689879 -0.01055869053 -6.454495086e-24)
(-0.1407275241 -0.0344132746 -9.68437783e-24)
(-0.1341853706 -0.05686686782 -3.257281385e-23)
(-0.121466915 -0.07546369462 -3.592209357e-23)
(-0.1029028638 -0.0874708897 5.503770729e-25)
(-0.07971480707 -0.09032517746 0)
(-0.05423397937 -0.08238987714 0)
(-0.02985355921 -0.06393903248 -2.889431699e-24)
(-0.0106562933 -0.03796842268 2.953512198e-24)
(-0.000734465691 -0.01049710072 1.026719883e-22)
(-0.0004477266059 0.02684358908 0)
(-0.01134001539 0.06473898975 2.000034369e-22)
(-0.02799321088 0.08820541332 8.95341168e-23)
(-0.04796006244 0.1000249721 0)
(-0.06915184556 0.1026127284 1.567629843e-22)
(-0.0903752988 0.09773304922 0)
(-0.1107027728 0.08654666157 -1.425879366e-22)
(-0.1293198228 0.06979756307 6.502149926e-24)
(-0.1453814901 0.04806498074 0)
(-0.1579364873 0.02202527179 0)
(-0.1659147454 -0.007302780989 -1.369703024e-24)
(-0.1681716694 -0.03833531927 -9.269247867e-25)
(-0.1636170415 -0.06876927328 1.485718087e-22)
(-0.1514404827 -0.09550027109 -4.698512787e-23)
(-0.1314449911 -0.1147421821 -2.542779072e-24)
(-0.1045056361 -0.1224854894 1.517626189e-24)
(-0.07305569695 -0.1154784055 -1.541565775e-24)
(-0.04132851701 -0.09277699818 0)
(-0.01524400509 -0.05737731232 3.193749726e-24)
(-0.001043536543 -0.01713944009 -1.010228818e-21)
(-0.000374610531 0.03342948439 0)
(-0.01174326617 0.0799101279 -1.12714528e-22)
(-0.02918945413 0.1085348139 -6.185099252e-22)
(-0.05028684428 0.1231104786 -3.751347887e-22)
(-0.07291940186 0.1268010927 0)
(-0.09593374305 0.1218309123 4.113869912e-22)
(-0.118461326 0.1095609575 1.258707905e-22)
(-0.1397408197 0.0907336241 -5.571268868e-24)
(-0.1589430347 0.06579238043 5.543694092e-24)
(-0.1750641192 0.03521492955 0)
(-0.1868733637 -0.0001641494878 2.906372338e-23)
(-0.1929360727 -0.03884098563 4.683184108e-24)
(-0.191703318 -0.07836222117 -1.073154045e-22)
(-0.1817154517 -0.1150948808 7.970225966e-23)
(-0.1619932425 -0.1441598698 -2.411654704e-22)
(-0.1326534205 -0.1597546103 0)
(-0.09573984388 -0.1562206772 0)
(-0.05599259465 -0.1302274514 0)
(-0.02146891663 -0.08376872367 0)
(-0.001499472066 -0.02664266096 5.558225639e-22)
(-0.0002878978576 0.04012425923 0)
(-0.01169023133 0.09534997914 -3.489735079e-22)
(-0.02923429165 0.1292935885 8.924461592e-22)
(-0.05059065197 0.1468066901 3.613356614e-22)
(-0.07367284214 0.1518564521 0)
(-0.09741507659 0.1471727411 -3.857335562e-22)
(-0.1210635958 0.1343387575 -3.169922902e-23)
(-0.1439840041 0.1140859402 3.328442901e-22)
(-0.1654626373 0.08667575182 1.766885475e-22)
(-0.1845715649 0.05229605813 -4.054096094e-23)
(-0.2000788708 0.01144961451 1.655496906e-23)
(-0.2104088889 -0.03465690683 -8.249116315e-24)
(-0.2136683892 -0.08368708606 3.36610026e-22)
(-0.2077706379 -0.1317803711 0)
(-0.1907757881 -0.1731692773 2.412819807e-22)
(-0.1615906355 -0.2001493311 5.750564094e-24)
(-0.1211316829 -0.2039083344 -5.836322223e-24)
(-0.07382691493 -0.1771265012 1.540829222e-22)
(-0.029707577 -0.1188091072 -5.412968237e-24)
(-0.002178512973 -0.04003605139 0)
(-0.000212579275 0.04667909519 0)
(-0.01125076263 0.1104610047 0)
(-0.02815541783 0.1496174842 -5.018183582e-22)
(-0.04874068446 0.1700235872 -1.879275394e-23)
(-0.07099280528 0.1765026115 2.036151087e-23)
(-0.09398279609 0.1723458977 -2.012109873e-23)
(-0.1171290541 0.1594043025 -2.313937325e-23)
(-0.1400022263 0.1384260456 -3.025553826e-22)
(-0.1621170187 0.1094915622 6.694674004e-23)
(-0.1827806284 0.0724567358 4.506369337e-23)
(-0.2009689259 0.02738133688 -4.570622718e-23)
(-0.2152124185 -0.02503093599 0)
(-0.2235404449 -0.08290731318 -7.81533695e-23)
(-0.223444987 -0.142633166 0)
(-0.2120466543 -0.1980773604 -3.733739049e-22)
(-0.1867199174 -0.2399659886 5.234738533e-22)
(-0.1464207972 -0.2559676185 0)
(-0.09392747019 -0.2330253515 -1.486601598e-22)
(-0.04021041282 -0.1638953655 1.929918505e-22)
(-0.003200004107 -0.058587121 -3.403930604e-22)
(-0.0002026982347 0.05294019524 0)
(-0.01067774245 0.1247307677 9.175892464e-22)
(-0.02629371597 0.1686262281 -2.438717529e-23)
(-0.04502318509 0.1915185571 9.186001908e-22)
(-0.06496002001 0.1991701656 -2.509853679e-23)
(-0.08538202892 0.1955053119 2.835908315e-23)
(-0.1059483399 0.1827082292 -2.810021158e-23)
(-0.1265128178 0.1616067887 -1.659069303e-23)
(-0.1469231343 0.1321546084 -5.254439202e-22)
(-0.1668721772 0.09390334738 -8.896671296e-24)
(-0.1857586114 0.0464379321 9.649614658e-24)
(-0.2025068066 -0.01018453 3.310004076e-22)
(-0.2154417714 -0.0749276228 -5.814512615e-22)
(-0.2220417739 -0.1449468618 0)
(-0.2188159314 -0.2145807655 8.876173231e-22)
(-0.2016291409 -0.2738983904 -4.931286318e-22)
(-0.166859175 -0.3074753276 -1.569172895e-23)
(-0.1140132165 -0.2952833158 0)
(-0.0528777949 -0.2195074101 -1.882680859e-22)
(-0.004748145276 -0.08374436087 3.353120405e-22)
(-0.0003655734221 0.05899160347 1.549859896e-23)
(-0.01050502313 0.1379091254 -8.757540024e-22)
(-0.02443297804 0.1855721909 -1.156287106e-21)
(-0.04029539488 0.2100190849 -8.622104632e-22)
(-0.05634330606 0.2181200221 0)
(-0.07219147503 0.2145207092 3.510692725e-23)
(-0.08784139756 0.2018053829 -7.28827928e-23)
(-0.1035113322 0.1809553378 5.862478345e-23)
(-0.1194587799 0.1518835538 3.018306534e-22)
(-0.1358578864 0.1139256868 -1.127168582e-23)
(-0.1526756855 0.06624746749 0)
(-0.1695196639 0.008227892217 -3.600537996e-22)
(-0.1853403805 -0.06009627477 7.509739339e-22)
(-0.1981022605 -0.1372018298 8.825691075e-22)
(-0.2044010695 -0.2188458386 -5.290987874e-22)
(-0.1991300482 -0.2958841586 5.158108958e-22)
(-0.176077689 -0.3513150251 1.075646812e-23)
(-0.1300934215 -0.3583245591 -1.092920344e-23)
(-0.06688570272 -0.2842543609 -8.280258832e-23)
(-0.007082538317 -0.1169648517 0)
(-0.0009110774079 0.06537508442 -1.910252198e-23)
(-0.01168869622 0.1502147525 -1.32620641e-21)
(-0.0239164274 0.1999715597 1.093511099e-21)
(-0.03605571371 0.2243157834 6.730988067e-22)
(-0.04662857689 0.2315563327 6.010932556e-22)
(-0.05583718553 0.2271521234 6.639553226e-22)
(-0.06418861885 0.2141133393 -4.455242483e-23)
(-0.07235942887 0.1936124534 -3.458914606e-22)
(-0.0810594503 0.1655930076 2.150674044e-22)
(-0.09096551305 0.1292853847 0)
(-0.1026500318 0.08356515166 0)
(-0.1164565688 0.02724837713 2.653970919e-22)
(-0.1322493589 -0.04056342434 8.19900044e-23)
(-0.1490081246 -0.119951898 -2.818586567e-22)
(-0.1641997255 -0.2088664299 -5.40818112e-23)
(-0.172843374 -0.3006322639 1.302789224e-22)
(-0.1670682923 -0.37926109 -3.397143792e-22)
(-0.136547624 -0.4135708844 -1.621863255e-23)
(-0.08018643631 -0.3537665976 8.268942766e-23)
(-0.01050739537 -0.1593811027 -6.036394648e-22)
(-0.002261999006 0.0734713796 0)
(-0.01581865547 0.1626011471 2.144728631e-21)
(-0.02668410592 0.2117146592 0)
(-0.03427619824 0.2333071363 -1.351103522e-21)
(-0.03766415501 0.2376906999 6.188522011e-23)
(-0.03808160212 0.2311819965 -6.188971246e-22)
(-0.0367784385 0.2171365572 -4.753439302e-22)
(-0.03499402346 0.1968647947 8.295882754e-22)
(-0.03389690218 0.1703295189 -1.884379478e-22)
(-0.03460889572 0.1367388762 0)
(-0.03822486492 0.09483028582 0)
(-0.04575562913 0.04308740231 2.412963805e-23)
(-0.0580082408 -0.02008795187 -6.004344344e-22)
(-0.07523828349 -0.09615625252 -4.307551978e-22)
(-0.09653322964 -0.185507003 4.636566173e-22)
(-0.1184133438 -0.2853091381 -6.485069757e-22)
(-0.1333211257 -0.3837888418 9.104578689e-23)
(-0.1265643415 -0.4503832216 2.966659701e-23)
(-0.08900164526 -0.4198017731 5.661755713e-22)
(-0.01526975166 -0.211143207 6.025019405e-22)
(-0.005182189141 0.08597167015 0)
(-0.02527097567 0.1765960784 1.465942771e-22)
(-0.03486980786 0.2205419851 -4.915131001e-23)
(-0.03645742497 0.2354199437 7.639381386e-22)
(-0.03026202497 0.2342739327 -7.001878853e-22)
(-0.01925961647 0.2241025325 4.744034275e-23)
(-0.005719984359 0.208310492 -1.018450389e-22)
(0.008457544618 0.1881015195 -3.387845985e-22)
(0.02168312179 0.1633884961 2.061798817e-22)
(0.03251347864 0.1333396025 0)
(0.03947458283 0.09667013166 0)
(0.0410668496 0.0517785547 -2.901473409e-22)
(0.03568904533 -0.003214293888 0)
(0.02189472581 -0.07054328849 -5.51108905e-22)
(-0.001341793269 -0.1525370952 -1.486141242e-23)
(-0.03316946002 -0.250562637 2.559009954e-23)
(-0.06914409648 -0.3599029649 2.201413586e-22)
(-0.09231214505 -0.4575120589 4.794166182e-24)
(-0.08719467811 -0.469778885 -5.790857865e-22)
(-0.0210327118 -0.269875 0)
(-0.01111699921 0.1085966931 0)
(-0.0425016677 0.1946995619 -8.845279539e-22)
(-0.04798659101 0.2257872339 -5.40973403e-22)
(-0.03924754716 0.2281698571 4.542708001e-22)
(-0.01885048966 0.2181860377 -1.711425169e-24)
(0.007575230063 0.2027798017 -4.559446456e-23)
(0.03657904857 0.1847304376 5.694042018e-22)
(0.06572221259 0.1646934983 -2.765590226e-23)
(0.09316143797 0.142309651 -2.068736401e-22)
(0.1172820277 0.116638256 3.140903891e-23)
(0.1364451455 0.08643330274 -3.42468668e-23)
(0.148874227 0.05020573922 -3.689593542e-23)
(0.1524450013 0.006191130713 3.204922386e-22)
(0.1448648099 -0.04793062834 6.118428167e-22)
(0.1234539686 -0.1152790973 -5.100417797e-22)
(0.08628422956 -0.2003990168 -1.616165493e-22)
(0.03194620086 -0.3067647876 1.530879086e-22)
(-0.02365318013 -0.423967752 7.293665259e-23)
(-0.06493711642 -0.4871431233 1.913232861e-21)
(-0.02510150508 -0.3291402701 2.954924982e-21)
(-0.02004634239 0.1460769729 -4.389403791e-23)
(-0.06416988729 0.2112929133 4.416571501e-23)
(-0.05072098352 0.217715896 1.000001513e-21)
(-0.01937594471 0.2014442318 -8.23068599e-24)
(0.02409231496 0.1808793507 0)
(0.07147290369 0.1606660044 4.362293221e-23)
(0.118989907 0.1416277456 -2.272963445e-22)
(0.164388683 0.1233045371 -9.024181591e-23)
(0.2061342351 0.1048077797 3.67912537e-23)
(0.242875365 0.08507679925 -1.700944461e-23)
(0.2731376621 0.06297459406 3.428738534e-23)
(0.2951795404 0.03728120688 -6.590822536e-23)
(0.3066326434 0.006555524813 -9.301434261e-23)
(0.30491949 -0.03085801207 1.516865362e-22)
(0.2863494263 -0.0778465854 0)
(0.247021604 -0.1399187707 1.505766696e-22)
(0.1810637236 -0.2266248709 2.559849449e-22)
(0.09602321089 -0.3443832087 0)
(-0.006708501703 -0.4552143203 -3.675516537e-21)
(-0.01922586453 -0.3777475518 -2.892555315e-21)
(-0.02591820606 0.2276873319 -9.513749688e-22)
(-0.0399811703 0.2238247209 -1.388823473e-22)
(0.03655904506 0.1810558217 -2.335129072e-22)
(0.1090385946 0.1450974288 -1.193449337e-22)
(0.1816950636 0.1172323358 -4.295333124e-23)
(0.2489719078 0.09626614782 9.780692528e-23)
(0.3099850933 0.08001407233 -1.408104885e-22)
(0.3645641221 0.06656077349 1.296648073e-22)
(0.4125641746 0.05448907949 -8.616387302e-23)
(0.4535639545 0.04271095158 1.132039399e-25)
(0.4867305863 0.03032894576 1.52725259e-23)
(0.5106945629 0.01653764546 7.994948885e-23)
(0.5236180393 0.000545679815 -1.81076074e-22)
(0.5231480351 -0.01862482362 -1.616966071e-22)
(0.5052090116 -0.04285760473 -4.262683822e-23)
(0.4658550979 -0.07632780828 0)
(0.3952577669 -0.1286075357 -1.846119935e-22)
(0.2915981533 -0.2208464115 8.148373443e-22)
(0.1197400864 -0.3525013223 1.631542616e-21)
(0.02670410042 -0.3775489895 2.172625056e-21)
(0.2142908099 0.1347460591 9.864486964e-22)
(0.2776353641 0.09870675468 0)
(0.4316639613 0.05810495174 -2.594065981e-22)
(0.530476896 0.03846237521 -1.741511677e-22)
(0.601692982 0.02623310728 0)
(0.6571094429 0.01831786255 -6.007681588e-23)
(0.7015044354 0.01313483446 6.375717344e-23)
(0.7375824775 0.009541485627 -1.799323383e-23)
(0.7669125493 0.006804551506 2.884658792e-23)
(0.7901864416 0.004465558212 2.314029449e-23)
(0.8074336864 0.002222709356 0)
(0.8182444412 -0.0001483318893 -2.872163803e-23)
(0.8216373869 -0.002722017842 0)
(0.816232131 -0.005711290931 2.737692705e-23)
(0.7991302261 -0.009610573443 1.421888871e-23)
(0.7679983385 -0.0150023357 -5.798982682e-23)
(0.7106563497 -0.02502556162 -2.535445448e-22)
(0.6235188929 -0.04204327838 -6.917796278e-22)
(0.4230090507 -0.09183011992 0)
(0.2705673381 -0.1524023829 -2.119453655e-21)
)


// ************************************************************************* //
