/*--------------------------------*- C++ -*----------------------------------*\
  =========                 |
  \\      /  F ield         | OpenFOAM: The Open Source CFD Toolbox
   \\    /   O peration     | Website:  https://openfoam.org
    \\  /    A nd           | Version:  13
     \\/     M anipulation  |
\*---------------------------------------------------------------------------*/
FoamFile
{
    format      ascii;
    class       vectorField;
    location    "41.96";
    object      U_all;
}
// * * * * * * * * * * * * * * * * * * * * * * * * * * * * * * * * * * * * * //


400
(
(1.100540438e-05 -3.783223602e-05 0)
(-0.0006660954404 0.0004130423032 -1.551223232e-23)
(-0.002185373968 0.0009203931031 0)
(-0.004047833268 0.001312781481 0)
(-0.005971870072 0.001535067934 6.845434989e-25)
(-0.007762784041 0.001569849933 4.150500732e-24)
(-0.009284543302 0.001423563262 -7.372823885e-24)
(-0.0104359379 0.001119720007 7.531222583e-24)
(-0.01113681232 0.0006960784245 -2.095289593e-25)
(-0.01132711289 0.0002030753548 -3.994586105e-24)
(-0.01097177652 -0.0003002328327 5.803547128e-24)
(-0.01007233152 -0.0007475137968 -5.929590016e-23)
(-0.008679881309 -0.001075560333 -6.552739737e-23)
(-0.006902851685 -0.001233043603 -7.784388068e-23)
(-0.004910735747 -0.001192639243 4.573600044e-24)
(-0.002927230312 -0.0009619216234 -4.137919212e-24)
(-0.001205298976 -0.0005912124378 -1.998743567e-22)
(-1.906929488e-05 -0.0001698830757 0)
(0.0005181529978 0.0001720859777 1.509603534e-25)
(0.0002227510889 0.0003059789428 -2.553013214e-24)
(-0.0002633633032 0.0008289697869 1.383037701e-25)
(-0.00270330551 0.003383841851 1.561019202e-23)
(-0.006907275501 0.005604499791 1.555209353e-25)
(-0.01195231779 0.007008206051 -8.49591227e-25)
(-0.01713504462 0.0075537772 1.162207625e-24)
(-0.02197535755 0.007294203597 1.306865752e-23)
(-0.02611076455 0.006321897774 1.388305841e-24)
(-0.02926564832 0.004754193196 -7.282905922e-24)
(-0.03122672761 0.002737148316 1.015309244e-23)
(-0.03184200622 0.0004524019592 4.5099245e-24)
(-0.03102761268 -0.001884146145 -6.318812946e-24)
(-0.02879316749 -0.004023027834 2.961837232e-24)
(-0.02527138664 -0.00570835131 3.895591187e-23)
(-0.02073195137 -0.006707407143 -1.954782889e-24)
(-0.01558962701 -0.006854139834 3.754507531e-24)
(-0.01038513315 -0.006097465658 -9.74102847e-23)
(-0.005730271249 -0.004546188271 9.637633292e-23)
(-0.002233366764 -0.002507420243 -3.961211834e-25)
(-0.0001817761635 -0.0005023727593 4.06111432e-25)
(8.343456312e-05 0.0006099257523 0)
(-0.0004188236299 0.002935080058 -2.910439728e-25)
(-0.004647875899 0.00880401694 1.702061438e-23)
(-0.01137196137 0.01324042479 -8.282586175e-24)
(-0.01932729003 0.01579203932 -2.075351014e-25)
(-0.027474115 0.01652999759 2.03881569e-25)
(-0.0351177874 0.01564441599 6.792712132e-27)
(-0.04171344966 0.0133599786 -1.22081901e-24)
(-0.04683571987 0.009919775231 -4.551232221e-25)
(-0.05014989061 0.005602435858 -1.063131579e-23)
(-0.05141231822 0.0007444199912 0)
(-0.05047793063 -0.004241782994 0)
(-0.04733706124 -0.008887189458 2.670995395e-23)
(-0.04215927914 -0.01268177016 2.813012704e-23)
(-0.03531437563 -0.01513605081 -1.646164313e-24)
(-0.027389964 -0.0158618942 4.845871296e-23)
(-0.01917005935 -0.01467334102 9.419329621e-23)
(-0.01156090716 -0.01169360405 3.975720939e-23)
(-0.005465411976 -0.007450743707 4.141961555e-25)
(-0.001451099988 -0.002936044231 1.073723023e-25)
(-9.072768059e-05 0.0002258769509 0)
(-0.0005024626296 0.006045349243 -4.24896272e-23)
(-0.006402739933 0.01637075669 -1.692282742e-23)
(-0.01553502647 0.02355933869 8.209411795e-24)
(-0.02627912238 0.0274416282 0)
(-0.03728746755 0.02832102108 0)
(-0.0476903732 0.02658772266 0)
(-0.05679662883 0.02263120115 -4.466086599e-26)
(-0.06405384054 0.01683609302 -2.136803067e-24)
(-0.06901081676 0.009622185798 0)
(-0.07130828034 0.001491051861 1.635452334e-24)
(-0.07070853566 -0.006936503457 2.802809306e-25)
(-0.06713039372 -0.01493018967 -2.810657106e-25)
(-0.06069905541 -0.02166728352 0)
(-0.0518075052 -0.02631605897 4.13329147e-23)
(-0.04114991722 -0.02816070916 -4.681583939e-23)
(-0.02971970282 -0.02677372222 -2.761942906e-23)
(-0.01873716715 -0.02221530519 -3.960867471e-23)
(-0.009488028737 -0.0152192222 7.795889351e-25)
(-0.002976880218 -0.007298195106 9.79029602e-23)
(-0.0002318798096 -0.0008661681435 0)
(-0.0005316121648 0.01009501504 4.26962347e-23)
(-0.007983591236 0.02595219409 4.785373216e-25)
(-0.01939687492 0.03642882911 -4.676076856e-25)
(-0.03282382641 0.04185520999 0)
(-0.04664689213 0.0428948552 7.7826485e-25)
(-0.05985229749 0.04020074134 -7.674739248e-25)
(-0.07163291305 0.03434741561 3.672207117e-23)
(-0.0813275113 0.02585663924 1.848176957e-23)
(-0.08836601043 0.01527298294 6.238788978e-24)
(-0.09225469605 0.003246147904 -1.637357658e-24)
(-0.09260379883 -0.009407831223 0)
(-0.08917555567 -0.02167477962 4.370693455e-25)
(-0.08195979228 -0.03236745108 1.00903413e-23)
(-0.07126885361 -0.04021250266 -4.349325508e-23)
(-0.05782018747 -0.04402046467 1.932909444e-24)
(-0.04278582943 -0.04294829449 4.217286411e-23)
(-0.02775450351 -0.03683346979 -3.84178914e-25)
(-0.01455062352 -0.02652721007 0)
(-0.004859462444 -0.01408454511 5.436536421e-23)
(-0.0003641481835 -0.002846953532 -2.565071047e-22)
(-0.0005272208148 0.01499927835 9.841399687e-23)
(-0.00937792458 0.03739022193 -4.907626479e-25)
(-0.02288182647 0.05170222865 0)
(-0.0388304352 0.05894183124 0)
(-0.05538656914 0.06025574787 -8.732102249e-23)
(-0.07142876859 0.05661901266 -8.499052006e-23)
(-0.08606654256 0.0488016887 -4.067455566e-23)
(-0.09855085985 0.03743980466 -1.504341825e-23)
(-0.1081945305 0.02315983853 -5.368841383e-24)
(-0.1143444727 0.006709678668 -8.174938722e-24)
(-0.1164046213 -0.01093292125 6.601073753e-24)
(-0.1138937409 -0.02848944956 8.826593392e-24)
(-0.1065486985 -0.04437046181 -1.892324191e-23)
(-0.09446804025 -0.05675333753 4.607055002e-24)
(-0.07826856818 -0.0637829871 0)
(-0.05922895352 -0.0639349548 -1.572895837e-23)
(-0.03933981859 -0.05653816316 -2.428089819e-26)
(-0.02114188811 -0.04235809125 0)
(-0.007318702746 -0.02398229403 -1.520639559e-22)
(-0.0005216163573 -0.005925545036 6.056255315e-22)
(-0.0004990827408 0.02064574725 -9.774353276e-23)
(-0.01052951074 0.05045438283 2.831971872e-22)
(-0.02582957412 0.06912511664 1.526853635e-22)
(-0.04402138244 0.07849257805 3.619272292e-24)
(-0.06310739179 0.08029476362 -7.31933303e-23)
(-0.0819040517 0.07588042961 9.043504875e-23)
(-0.09947763777 0.06621690784 -3.59020682e-24)
(-0.115022738 0.05201695107 -1.729161905e-24)
(-0.1277519175 0.03392358458 2.524148742e-24)
(-0.1368472593 0.0127023313 7.382577515e-24)
(-0.1414710515 -0.01058782353 -6.500824004e-24)
(-0.1408248179 -0.03446024332 -9.788006261e-24)
(-0.1342745969 -0.05692771621 -3.261738423e-23)
(-0.1215450239 -0.07553316127 -3.66140245e-23)
(-0.1029672653 -0.08754260504 5.645778526e-25)
(-0.07976369828 -0.09039209636 0)
(-0.05426682416 -0.08244513718 0)
(-0.02987160908 -0.06397736824 -2.906053429e-24)
(-0.01066285139 -0.03798794688 2.97050241e-24)
(-0.0007350936339 -0.01050089484 1.027872551e-22)
(-0.0004479169485 0.02687251112 0)
(-0.01134923324 0.06480757649 2.001989569e-22)
(-0.0280159976 0.08829617338 8.962081447e-23)
(-0.04799857359 0.1001234944 0)
(-0.06920601984 0.1027076544 1.569881422e-22)
(-0.09044373214 0.09781578543 0)
(-0.1107831688 0.08661103022 -1.428388022e-22)
(-0.1294093773 0.06983950398 6.515557248e-24)
(-0.1454771644 0.04808232239 0)
(-0.1580351819 0.0220175559 0)
(-0.166013346 -0.007334439709 -1.374409041e-24)
(-0.1682671562 -0.03838839707 -9.316754122e-25)
(-0.1637064703 -0.06883975786 1.491977228e-22)
(-0.1515208768 -0.09558275645 -4.704636247e-23)
(-0.1315134559 -0.1148298647 -2.560960983e-24)
(-0.1045596076 -0.1225703401 1.534718179e-24)
(-0.07309349862 -0.1155517959 -1.558927256e-24)
(-0.0413502146 -0.09283115524 0)
(-0.01525230269 -0.05740767608 3.203808029e-24)
(-0.001044309104 -0.01714714466 -1.012913064e-21)
(-0.0003744662731 0.03346304362 0)
(-0.01175006039 0.07998918678 -1.128290461e-22)
(-0.02920707989 0.1086390949 -6.191146993e-22)
(-0.05031745103 0.1232233996 -3.755305047e-22)
(-0.07296317502 0.1269097033 0)
(-0.09598960237 0.1219255632 4.119453721e-22)
(-0.1185273489 0.1096348635 1.260924743e-22)
(-0.139814643 0.09078245831 -5.581834904e-24)
(-0.1590221564 0.06581393165 5.55420782e-24)
(-0.175146102 0.03520881123 0)
(-0.1869560002 -0.0001967468132 2.912130363e-23)
(-0.1930172664 -0.03889754294 4.695836822e-24)
(-0.1917809928 -0.07843888463 -1.076807779e-22)
(-0.1817874449 -0.1151865369 8.004198951e-23)
(-0.1620570446 -0.1442599454 -2.419744593e-22)
(-0.1327062008 -0.1598548619 0)
(-0.09577888187 -0.1563112879 0)
(-0.05601633054 -0.1302981078 0)
(-0.02147859132 -0.08381135073 0)
(-0.001500384635 -0.02665516278 5.572111617e-22)
(-0.0002873895281 0.04016077663 0)
(-0.01169359537 0.09543611384 -3.493016482e-22)
(-0.02924438258 0.1294073621 8.932799545e-22)
(-0.05060947323 0.1469299168 3.617177364e-22)
(-0.0737008271 0.1519748674 0)
(-0.09745151177 0.1472757959 -3.862551691e-22)
(-0.121106984 0.1344191944 -3.174428785e-23)
(-0.1440324789 0.1141393314 3.333104221e-22)
(-0.1655143241 0.08670006589 1.769474631e-22)
(-0.1846248531 0.052291235 -4.060152181e-23)
(-0.2001325823 0.01141716222 1.65682203e-23)
(-0.2104622455 -0.03471424102 -8.265247807e-24)
(-0.2137208539 -0.08376563553 3.371858282e-22)
(-0.2078215507 -0.1318756342 0)
(-0.1908238542 -0.1732756129 2.420913618e-22)
(-0.1616335742 -0.2002593386 5.774771977e-24)
(-0.1211662692 -0.20401217 -5.860890909e-24)
(-0.07384989798 -0.1772119949 1.548446163e-22)
(-0.02971786823 -0.1188642322 -5.43545436e-24)
(-0.002179545156 -0.04005398715 0)
(-0.0002117198093 0.04671640043 0)
(-0.01125001037 0.1105498119 0)
(-0.02815624376 0.1497354993 -5.022756849e-22)
(-0.04874479273 0.1701517597 -1.88099775e-23)
(-0.07100086658 0.1766257144 2.038378176e-23)
(-0.09399451529 0.1724526511 -2.014310679e-23)
(-0.1171434301 0.1594870987 -2.316882916e-23)
(-0.1400179503 0.1384805081 -3.02982287e-22)
(-0.1621328888 0.1095160714 6.698612303e-23)
(-0.1827959034 0.07245186959 4.513178031e-23)
(-0.2009835555 0.02734928858 -4.577720919e-23)
(-0.2152270263 -0.02508697723 0)
(-0.2235562213 -0.08298351304 -7.839681935e-23)
(-0.2234632198 -0.1427257325 0)
(-0.2120679434 -0.1981820875 -3.739562219e-22)
(-0.1867434551 -0.240077369 5.244953777e-22)
(-0.1464438305 -0.2560773406 0)
(-0.09394567734 -0.23312095 -1.493992315e-22)
(-0.04022000992 -0.1639613656 1.937548851e-22)
(-0.003201100269 -0.05861063121 -3.411528388e-22)
(-0.0002015411048 0.05297585139 0)
(-0.01067261884 0.1248172388 9.182869267e-22)
(-0.02628446626 0.1687424575 -2.440685057e-23)
(-0.04501107769 0.1916455133 9.193339064e-22)
(-0.06494597503 0.1992921048 -2.512086447e-23)
(-0.08536628574 0.1956104315 2.838844119e-23)
(-0.1059305654 0.1827886843 -2.81293018e-23)
(-0.1264924191 0.1616583509 -1.660917891e-23)
(-0.1468996848 0.13217623 -5.260228958e-22)
(-0.1668458156 0.09389646627 -8.906628315e-24)
(-0.1857303022 0.04640576294 9.660196563e-24)
(-0.2024781684 -0.01023784738 3.313077977e-22)
(-0.2154154613 -0.07499820312 -5.820740505e-22)
(-0.2220209717 -0.1450311836 0)
(-0.2188032105 -0.2146760615 8.887323936e-22)
(-0.2016257526 -0.274001642 -4.940886436e-22)
(-0.1668639194 -0.3075811954 -1.572223014e-23)
(-0.1140220095 -0.2953811909 0)
(-0.05288482018 -0.2195802575 -1.890182577e-22)
(-0.004749188148 -0.08377277937 3.360586189e-22)
(-0.0003641986791 0.05902317745 1.551010522e-23)
(-0.01049573968 0.13798815 -8.764196946e-22)
(-0.02441389536 0.1856804098 -1.157059205e-21)
(-0.04026724418 0.2101384745 -8.628987968e-22)
(-0.05630729614 0.2182348905 0)
(-0.07214856578 0.2146190265 3.513805631e-23)
(-0.0877922166 0.2018791955 -7.294867107e-23)
(-0.1034562796 0.1810005612 5.867884936e-23)
(-0.1193983878 0.1518997245 3.021366856e-22)
(-0.1357931551 0.1139150572 -1.128195798e-23)
(-0.1526082324 0.06621424981 0)
(-0.1694521379 0.008177203752 -3.603930065e-22)
(-0.1852760603 -0.06015987656 7.515668934e-22)
(-0.1980448524 -0.1372747006 8.831704704e-22)
(-0.2043546271 -0.2189261882 -5.296627615e-22)
(-0.1990977619 -0.2959712908 5.162689826e-22)
(-0.1760605335 -0.3514072584 1.078232671e-23)
(-0.1300890634 -0.3584150779 -1.095547707e-23)
(-0.06688803312 -0.2843276507 -8.21534501e-23)
(-0.007083319926 -0.1169964416 0)
(-0.0009095775784 0.06540041497 -1.911487044e-23)
(-0.01167591729 0.1502816405 -1.326965697e-21)
(-0.02388882092 0.2000659553 1.09423759e-21)
(-0.03601340434 0.2244216959 6.734930739e-22)
(-0.04657308752 0.2316588236 6.014632399e-22)
(-0.05577038518 0.2272393691 6.643957596e-22)
(-0.06411245772 0.2141774874 -4.458677884e-23)
(-0.07227561674 0.1936494382 -3.461337393e-22)
(-0.08096972983 0.165602832 2.152162564e-22)
(-0.09087192354 0.1292707359 0)
(-0.1025547456 0.08353082511 0)
(-0.116362216 0.02720010766 2.655397016e-22)
(-0.1321589563 -0.04062005962 8.19432605e-23)
(-0.1489252323 -0.1200128301 -2.821623677e-22)
(-0.1641284287 -0.2089300682 -5.411271841e-23)
(-0.1727877625 -0.3006992498 1.301951885e-22)
(-0.167031131 -0.3793329093 -3.400504243e-22)
(-0.1365292442 -0.4136451961 -1.593856353e-23)
(-0.08018250152 -0.3538326197 8.20411765e-23)
(-0.01050762293 -0.1594130566 -6.032163699e-22)
(-0.002260498316 0.07348883479 0)
(-0.01580355668 0.1626521765 2.145874728e-21)
(-0.02665042635 0.2117904729 0)
(-0.03422339672 0.2333947262 -1.35180802e-21)
(-0.03759398556 0.2377766816 6.184053554e-23)
(-0.03799685318 0.2312553514 -6.193095185e-22)
(-0.0366826599 0.2171899004 -4.756284565e-22)
(-0.03489036449 0.196893449 8.301255294e-22)
(-0.03378838039 0.1703342384 -1.885698144e-22)
(-0.03449876578 0.136722108 0)
(-0.03811572856 0.09479673683 0)
(-0.04564992573 0.04304286661 2.410616257e-23)
(-0.05790804446 -0.02013781141 -6.007198657e-22)
(-0.07514598691 -0.09620650118 -4.309567069e-22)
(-0.09645175131 -0.1855556163 4.63786248e-22)
(-0.1183462629 -0.2853567762 -6.488734967e-22)
(-0.1332715392 -0.3838386525 9.119946138e-23)
(-0.1265350994 -0.4504358705 2.937342267e-23)
(-0.08899154109 -0.4198536367 5.660446293e-22)
(-0.01526917933 -0.2111719727 6.020796434e-22)
(-0.005180899465 0.08598045947 0)
(-0.02525550736 0.1766291185 1.465579239e-22)
(-0.03483408068 0.2205961545 -4.917144527e-23)
(-0.03640013975 0.2354859338 7.64293056e-22)
(-0.03018483138 0.2343406741 -7.005377924e-22)
(-0.01916579515 0.2241603871 4.746480798e-23)
(-0.00561515113 0.2083525836 -1.0186098e-22)
(0.008569606728 0.1881241083 -3.389888631e-22)
(0.02179886046 0.1633911269 2.06282278e-22)
(0.03262781324 0.1333242734 0)
(0.03958458402 0.09664086231 0)
(0.04117013106 0.05174056509 -2.902667675e-22)
(0.03578483683 -0.00325539707 0)
(0.02198184559 -0.07058360764 -5.51218692e-22)
(-0.001264847097 -0.15257355 -1.492376913e-23)
(-0.03310469967 -0.250594984 2.55974004e-23)
(-0.06909235887 -0.3599341509 2.203141131e-22)
(-0.09227827051 -0.457542452 4.788099739e-24)
(-0.08718089944 -0.4698129408 -5.789414886e-22)
(-0.02103127151 -0.2698972292 0)
(-0.01111631551 0.1085974975 0)
(-0.042489019 0.1947151673 -8.848478527e-22)
(-0.04795529014 0.2258195503 -5.411039435e-22)
(-0.03919536056 0.2282135548 4.543816484e-22)
(-0.01877830406 0.2182328127 -1.709983362e-24)
(0.007664312803 0.2028220347 -4.561049395e-23)
(0.03667993278 0.1847619762 5.696681809e-22)
(0.06582998452 0.1647118211 -2.76689041e-23)
(0.09327130748 0.1423128177 -2.069781662e-22)
(0.1173891592 0.116627494 3.142213468e-23)
(0.1365461671 0.08641143923 -3.4259171e-23)
(0.1489669252 0.05017669075 -3.690594059e-23)
(0.1525275766 0.006159167477 3.205633462e-22)
(0.1449367018 -0.04796126968 6.119606046e-22)
(0.1235159779 -0.1153052903 -5.101171315e-22)
(0.08633533328 -0.2004195644 -1.616057711e-22)
(0.03199089195 -0.3067806587 1.53130863e-22)
(-0.02362123226 -0.4239837141 7.293654162e-23)
(-0.06492413084 -0.4871612785 1.913291866e-21)
(-0.02509971708 -0.3291544741 2.95499175e-21)
(-0.02004680483 0.1460727407 -4.390207404e-23)
(-0.06416406295 0.2112955859 4.417380153e-23)
(-0.05070230634 0.2177300476 1.000188509e-21)
(-0.01934097419 0.2014679982 -8.27057322e-24)
(0.02414464851 0.1809076177 0)
(0.07154121968 0.1606933346 4.363722063e-23)
(0.1190703395 0.1416495491 -2.27385187e-22)
(0.164476732 0.123318182 -9.027956835e-23)
(0.2062251146 0.1048117293 3.680734489e-23)
(0.242964301 0.0850714009 -1.701654979e-23)
(0.2732207567 0.06296147689 3.429970407e-23)
(0.2952536098 0.03726293842 -6.592681127e-23)
(0.3066971051 0.006535068419 -9.303905973e-23)
(0.3049738305 -0.03087770019 1.517044063e-22)
(0.2863936242 -0.07786290944 0)
(0.2470568078 -0.1399300367 1.505610652e-22)
(0.181092223 -0.2266299751 2.560014046e-22)
(0.09604450201 -0.3443894946 0)
(-0.006697616135 -0.4552210217 -3.675635244e-21)
(-0.01922408207 -0.3777537587 -2.892621213e-21)
(-0.02591951338 0.2276828803 -9.514204433e-22)
(-0.03998324701 0.2238216532 -1.388976397e-22)
(0.03656136828 0.1810585361 -2.335581714e-22)
(0.1090503045 0.1451059091 -1.193742201e-22)
(0.1817191191 0.1172445494 -4.295825913e-23)
(0.2490090729 0.09627907621 9.783181287e-23)
(0.3100336698 0.08002510408 -1.408592222e-22)
(0.3646209327 0.06656815331 1.297175341e-22)
(0.4126252488 0.05449178891 -8.620120778e-23)
(0.4536250294 0.0427089493 1.132189184e-25)
(0.4867878719 0.03032298425 1.527741787e-23)
(0.5107451362 0.01652901864 7.997205156e-23)
(0.5236597454 0.0005365143931 -1.81112387e-22)
(0.5231798012 -0.01863373248 -1.617146207e-22)
(0.5052323419 -0.04286478954 -4.262953441e-23)
(0.4658715081 -0.07633231183 0)
(0.3952696497 -0.1286089384 -1.846478008e-22)
(0.2916071047 -0.2208468098 8.148764034e-22)
(0.1197455105 -0.3525016903 1.631601687e-21)
(0.02670547256 -0.3775497979 2.172655964e-21)
(0.2142894468 0.1347447208 9.864989381e-22)
(0.2776311181 0.09870503563 0)
(0.4316592285 0.05810414856 -2.594320755e-22)
(0.5304749344 0.03846264961 -1.741666501e-22)
(0.6016965751 0.02623419113 0)
(0.657119896 0.01831923469 -6.009091978e-23)
(0.7015213604 0.0131360084 6.378001683e-23)
(0.7376042501 0.00954212628 -1.800156585e-23)
(0.7669368416 0.006804463549 2.885974264e-23)
(0.7902106684 0.004464743845 2.315033251e-23)
(0.8074555009 0.002221319802 0)
(0.8182621354 -0.0001500750282 -2.873032987e-23)
(0.8216499714 -0.002723848332 0)
(0.8162394196 -0.005712668683 2.738150663e-23)
(0.7991333148 -0.009611382843 1.421691405e-23)
(0.7679986345 -0.01500255106 -5.799404282e-23)
(0.7106555755 -0.02502519953 -2.535661284e-22)
(0.623518398 -0.04204285407 -6.918102234e-22)
(0.423009102 -0.09182968081 0)
(0.2705674689 -0.1524021841 -2.119483827e-21)
)


// ************************************************************************* //
