/*--------------------------------*- C++ -*----------------------------------*\
  =========                 |
  \\      /  F ield         | OpenFOAM: The Open Source CFD Toolbox
   \\    /   O peration     | Website:  https://openfoam.org
    \\  /    A nd           | Version:  13
     \\/     M anipulation  |
\*---------------------------------------------------------------------------*/
FoamFile
{
    format      ascii;
    class       volScalarField;
    location    "3";
    object      p;
}
// * * * * * * * * * * * * * * * * * * * * * * * * * * * * * * * * * * * * * //

dimensions      [0 2 -2 0 0 0 0];

internalField   nonuniform List<scalar> 
100
(
9.09631e-09
-0.00039305
0.000157508
0.00179438
0.0043172
0.0073607
0.0103828
0.0126947
0.0136849
0.0133888
0.000368417
-0.000160711
0.000287507
0.00174378
0.0040609
0.00693995
0.00988313
0.0122066
0.0132567
0.0129246
-0.000333547
-0.00109305
-0.000731447
0.000699222
0.00308762
0.00620042
0.0095564
0.0123758
0.0137697
0.0134128
-0.00268497
-0.00367795
-0.00335363
-0.00181785
0.000883234
0.00462436
0.00896375
0.0129777
0.0153511
0.0153807
-0.00723974
-0.00846711
-0.00814762
-0.00645119
-0.00329106
0.0014224
0.00740034
0.013649
0.0182353
0.0197491
-0.0148557
-0.0162618
-0.0159051
-0.0140567
-0.0103793
-0.00440263
0.00396586
0.014003
0.023108
0.028666
-0.0269302
-0.0280894
-0.0273761
-0.0252033
-0.0208316
-0.0132551
-0.00164598
0.0143539
0.0319995
0.0468851
-0.0464783
-0.044838
-0.0421437
-0.0386491
-0.0329252
-0.0233293
-0.00755025
0.0170334
0.0497544
0.0849624
-0.0813081
-0.0646713
-0.0554549
-0.0488885
-0.0413056
-0.0295604
-0.00934772
0.0259762
0.0834881
0.165442
-0.163855
-0.0839
-0.0580577
-0.0499938
-0.0426645
-0.0302597
-0.00676313
0.0416751
0.138202
0.306587
)
;

boundaryField
{
    movingWall
    {
        type            zeroGradient;
    }
    fixedWalls
    {
        type            zeroGradient;
    }
    frontAndBack
    {
        type            empty;
    }
}


// ************************************************************************* //
