/*--------------------------------*- C++ -*----------------------------------*\
  =========                 |
  \\      /  F ield         | OpenFOAM: The Open Source CFD Toolbox
   \\    /   O peration     | Website:  https://openfoam.org
    \\  /    A nd           | Version:  13
     \\/     M anipulation  |
\*---------------------------------------------------------------------------*/
FoamFile
{
    format      ascii;
    class       surfaceScalarField;
    location    "3";
    object      phi;
}
// * * * * * * * * * * * * * * * * * * * * * * * * * * * * * * * * * * * * * //

dimensions      [0 3 -1 0 0 0 0];

internalField   nonuniform List<scalar> 
180
(
-0.000321445
0.000321441
-0.000976934
0.00065549
-0.001671
0.000694067
-0.00219638
0.000525382
-0.0024405
0.00024412
-0.00233497
-0.000105529
-0.00186287
-0.000472094
-0.00111173
-0.00075114
-0.000357866
-0.000753865
-0.000357866
-0.000755577
0.00107702
-0.00211901
0.00201893
-0.00351965
0.00209472
-0.00457095
0.00157668
-0.00506037
0.000733543
-0.00485805
-0.00030785
-0.00392554
-0.0014046
-0.00241573
-0.00226094
-0.000842181
-0.0023274
-0.00120005
-0.0011024
0.00217942
-0.0030094
0.00392593
-0.00488525
0.00397057
-0.00628353
0.00297496
-0.0069666
0.0014166
-0.00677274
-0.000501711
-0.00561321
-0.00256413
-0.00359794
-0.00427622
-0.00131556
-0.00460978
-0.00251562
-0.0014567
0.00363612
-0.0038821
0.00635133
-0.00621878
0.00630725
-0.00798217
0.00473835
-0.00893932
0.00237376
-0.0088925
-0.000548536
-0.00764786
-0.00380878
-0.00516179
-0.00676229
-0.0020153
-0.00775626
-0.00453092
-0.00192599
0.00556211
-0.00495023
0.00937557
-0.00777862
0.00913563
-0.0099293
0.00688902
-0.0112281
0.00367254
-0.0114665
-0.000310119
-0.010324
-0.00495127
-0.00745759
-0.0096287
-0.00320194
-0.0120119
-0.00773286
-0.00254895
0.00811106
-0.00620621
0.0130328
-0.00940524
0.0123347
-0.0117723
0.00925612
-0.0133132
0.00521341
-0.0138946
0.000271288
-0.0131475
-0.00569844
-0.0102904
-0.0124858
-0.00496439
-0.0173379
-0.0126973
-0.00330423
0.0114153
-0.00735977
0.0170884
-0.0103168
0.0152916
-0.0122164
0.0111558
-0.0134844
0.00648139
-0.0142187
0.00100558
-0.014217
-0.00570015
-0.0122731
-0.0144297
-0.00677391
-0.0228371
-0.0194712
-0.00414109
0.0155564
-0.00741672
0.020364
-0.00814551
0.0160204
-0.00790564
0.0109159
-0.00776851
0.00634427
-0.00825139
0.00148846
-0.00930356
-0.00464798
-0.0098959
-0.0138374
-0.00685456
-0.0258784
-0.0263257
-0.0053439
0.0209003
-0.00128356
0.0163037
0.00494209
0.00979478
0.00945413
0.00640387
0.0119194
0.003879
0.012037
0.00137087
0.0094299
-0.00204089
0.00387603
-0.0082835
-0.00152862
-0.0204737
-0.0278544
0.0209003
0.0372039
0.0469987
0.0534026
0.0572816
0.0586525
0.0566116
0.0483281
0.0278544
)
;

boundaryField
{
    movingWall
    {
        type            calculated;
        value           uniform 0;
    }
    fixedWalls
    {
        type            calculated;
        value           uniform 0;
    }
    frontAndBack
    {
        type            empty;
    }
}


// ************************************************************************* //
