/*--------------------------------*- C++ -*----------------------------------*\
  =========                 |
  \\      /  F ield         | OpenFOAM: The Open Source CFD Toolbox
   \\    /   O peration     | Website:  https://openfoam.org
    \\  /    A nd           | Version:  13
     \\/     M anipulation  |
\*---------------------------------------------------------------------------*/
FoamFile
{
    format      ascii;
    class       surfaceScalarField;
    location    "3";
    object      phi_0;
}
// * * * * * * * * * * * * * * * * * * * * * * * * * * * * * * * * * * * * * //

dimensions      [0 3 -1 0 0 0 0];

internalField   nonuniform List<scalar> 
180
(
-0.000316395
0.000316395
-0.00091521
0.000598815
-0.00148548
0.000570265
-0.00187968
0.000394202
-0.00203629
0.000156609
-0.0019267
-0.000109581
-0.00155164
-0.000375066
-0.000963324
-0.000588312
-0.000330313
-0.000633011
-0.000330314
-0.000682273
0.000998668
-0.00195062
0.00186716
-0.00312628
0.00174593
-0.00393783
0.00120575
-0.00426436
0.000483137
-0.00404816
-0.000325783
-0.00328562
-0.0011376
-0.00207262
-0.00180131
-0.000718764
-0.00198687
-0.00104908
-0.000926555
0.00192522
-0.00257521
0.00351581
-0.00405713
0.00322785
-0.00507163
0.00222026
-0.0054956
0.000907108
-0.00526236
-0.000559025
-0.00434471
-0.00205526
-0.002814
-0.00333203
-0.00101082
-0.00379004
-0.0020599
-0.0012229
0.00314812
-0.00331989
0.00561281
-0.00515036
0.00505832
-0.00639508
0.00346498
-0.00695543
0.00146746
-0.00675951
-0.000754952
-0.0057262
-0.00308857
-0.00384262
-0.00521561
-0.00144243
-0.00619023
-0.00350233
-0.00168095
0.00482907
-0.00439215
0.00832401
-0.00664552
0.00731169
-0.00814971
0.00496917
-0.00888367
0.00220141
-0.00879231
-0.000846308
-0.00771413
-0.00416675
-0.00545558
-0.00747416
-0.00220551
-0.00944029
-0.00570784
-0.00238389
0.00721296
-0.00586355
0.0118037
-0.00850254
0.00995068
-0.0101721
0.00663871
-0.0110387
0.00306802
-0.0111266
-0.000758413
-0.0101942
-0.00509917
-0.00773735
-0.00993098
-0.00348048
-0.0136972
-0.00918832
-0.00342849
0.0106414
-0.00758968
0.0159649
-0.0101781
0.0125391
-0.0115696
0.00803024
-0.0123029
0.00380132
-0.0125854
-0.000475918
-0.0121624
-0.00552212
-0.0101453
-0.0119481
-0.0052591
-0.0185833
-0.0144474
-0.00490295
0.0155444
-0.00855463
0.0196165
-0.00945655
0.013441
-0.00940187
0.00797555
-0.00937205
0.0037715
-0.00974427
-0.000103693
-0.0103827
-0.00488368
-0.010272
-0.0120589
-0.00663451
-0.0222208
-0.0210819
-0.00595267
0.0214971
-0.00283082
0.0164947
0.00207475
0.00853541
0.00524001
0.0048103
0.00657989
0.00243162
0.0061304
0.000345796
0.00358751
-0.00234078
-0.0010743
-0.00739706
-0.00455482
-0.0187403
-0.0256367
0.0214971
0.0379918
0.0465272
0.0513375
0.0537691
0.0541149
0.0517741
0.0443771
0.0256367
)
;

boundaryField
{
    movingWall
    {
        type            calculated;
        value           uniform 0;
    }
    fixedWalls
    {
        type            calculated;
        value           uniform 0;
    }
    frontAndBack
    {
        type            empty;
    }
}


// ************************************************************************* //
