/*--------------------------------*- C++ -*----------------------------------*\
  =========                 |
  \\      /  F ield         | OpenFOAM: The Open Source CFD Toolbox
   \\    /   O peration     | Website:  https://openfoam.org
    \\  /    A nd           | Version:  13
     \\/     M anipulation  |
\*---------------------------------------------------------------------------*/
FoamFile
{
    format      ascii;
    class       scalarField;
    location    "48.32";
    object      p_all;
}
// * * * * * * * * * * * * * * * * * * * * * * * * * * * * * * * * * * * * * //


400
(
8.525604874e-09
-0.0005474975069
-0.00088954977
-0.001017047084
-0.0009381877728
-0.0006853225046
-0.000296029669
0.0001936902661
0.0007473111984
0.001324356613
0.001879195567
0.002358969076
0.00270827709
0.002874018661
0.002814659326
0.002512208332
0.001987139825
0.001296593795
0.00063765352
4.174424766e-05
0.0005881600374
6.861891333e-06
-0.0003568744852
-0.0004992123022
-0.0004685722626
-0.0002915119035
2.592694201e-06
0.0003844461309
0.0008226264504
0.001279859943
0.001716306381
0.002080819511
0.002323035596
0.002395589815
0.002264605635
0.001921302592
0.00139242568
0.0007430338593
0.0001453709887
-0.0005173213812
0.0009524148231
0.0003080031457
-9.324706085e-05
-0.0002395770638
-0.000233464566
-0.0001049809658
0.0001218438273
0.0004257282302
0.000782937683
0.001161455331
0.001529477093
0.001832870663
0.002021712553
0.002047287287
0.00187446053
0.001493409594
0.0009281069426
0.0002351103659
-0.0004633770782
-0.001300356736
0.0009761247849
0.0002579482862
-0.0001923045704
-0.0003445966164
-0.0003538549285
-0.0002568778443
-7.430148876e-05
0.0001812880463
0.0004963545728
0.0008506618275
0.001203010223
0.001510482323
0.001712278211
0.001747869447
0.001568389431
0.001150448555
0.000505862512
-0.0003186336276
-0.001233980767
-0.002384786072
0.0004804652011
-0.000285025937
-0.0007639400148
-0.0009156466538
-0.0009366705933
-0.0008682422647
-0.0007253371155
-0.0005084089805
-0.0002171714661
0.0001391313011
0.0005300664551
0.0009073637788
0.001199800335
0.001326490624
0.001211018718
0.0008001841034
7.993356502e-05
-0.0009176720369
-0.002127666187
-0.003656169452
-0.0006863854317
-0.001467166225
-0.001956218469
-0.002107280249
-0.002150065272
-0.002126716644
-0.002042332879
-0.0018797081
-0.001617594563
-0.001245566482
-0.0007791606269
-0.0002629109859
0.0002205655859
0.0005614398931
0.0006377967435
0.000341497423
-0.0003930595298
-0.001564099553
-0.00313488891
-0.005142128352
-0.002661858115
-0.003423566084
-0.003915427959
-0.00408080849
-0.004178182579
-0.004247241235
-0.004278260829
-0.004229202903
-0.004047596595
-0.003689645278
-0.003140799658
-0.002426812018
-0.001633575738
-0.0009035075733
-0.0004248930093
-0.0003987508241
-0.0009882928544
-0.002260631637
-0.004232792412
-0.006828372852
-0.005555055868
-0.006269982836
-0.006768266416
-0.006982211113
-0.007195602399
-0.007443504632
-0.007697213799
-0.00788227918
-0.007902243422
-0.00766068522
-0.007087423049
-0.006159575567
-0.004943835884
-0.003604961391
-0.002414029005
-0.001714606297
-0.001843287656
-0.003015098164
-0.00536853228
-0.008662328479
-0.009435277932
-0.01008161667
-0.01059848647
-0.01091072634
-0.01132613018
-0.01187601714
-0.01251139635
-0.01311977119
-0.01354792906
-0.01362349846
-0.01318262296
-0.01212127243
-0.01042818406
-0.00825672105
-0.005956495043
-0.004062070423
-0.003190332417
-0.003843230966
-0.006426626336
-0.01049181581
-0.01431705028
-0.01487604124
-0.01542303235
-0.01588227866
-0.01659011989
-0.01758025581
-0.01878711945
-0.02005925144
-0.02117773704
-0.02187378922
-0.02185756796
-0.02087245357
-0.01877211605
-0.01562029274
-0.01179526749
-0.00803752995
-0.005360087625
-0.004760345834
-0.007181366939
-0.01197944899
-0.02015456288
-0.02060478864
-0.02117497787
-0.02179698404
-0.02285234435
-0.02439060777
-0.02633948211
-0.02851387066
-0.03062781162
-0.03230374427
-0.03309549986
-0.03254094918
-0.0302827286
-0.02617892947
-0.02052512569
-0.01420415528
-0.008691764338
-0.005726834583
-0.007219481288
-0.01246662883
-0.02685659227
-0.02716234967
-0.02770278293
-0.02842319829
-0.02978940277
-0.03188934893
-0.03465914248
-0.0378899105
-0.04123419747
-0.04420532234
-0.04618839504
-0.04647904241
-0.04446334224
-0.03966028982
-0.03212127517
-0.02269899804
-0.01326680442
-0.006486164272
-0.00580885625
-0.01076545222
-0.03433495227
-0.03441836135
-0.0347896955
-0.03540477537
-0.0368920893
-0.03941024984
-0.04292030282
-0.04719794484
-0.05184034247
-0.05625865845
-0.0596800149
-0.06119117705
-0.05977979925
-0.05465604314
-0.04544131747
-0.03269995656
-0.01845333491
-0.006246141609
-0.001674185202
-0.004873819755
-0.04261009394
-0.04227966536
-0.04219588057
-0.0422961964
-0.04351394324
-0.04611664581
-0.05009987158
-0.05522065066
-0.06101533824
-0.06679645235
-0.07164039809
-0.07441329749
-0.07383285556
-0.06867517201
-0.05807223144
-0.04206210141
-0.02244030899
-0.003257475768
0.00734681848
0.008341214572
-0.05201060109
-0.05076125347
-0.04967807241
-0.04857916723
-0.04892703143
-0.05112046375
-0.05517316773
-0.06079652408
-0.06743583762
-0.07429020842
-0.08028308825
-0.08407654196
-0.08413097337
-0.07883785741
-0.06684311741
-0.04752372362
-0.02212775051
0.005501513501
0.02471511606
0.03352715642
-0.06365620216
-0.06018949571
-0.0570976364
-0.05376468453
-0.05246582794
-0.05368049932
-0.05736535021
-0.06313855421
-0.07026303131
-0.07780149763
-0.08449318923
-0.08878640322
-0.08889872189
-0.0828399952
-0.06885107744
-0.04562109785
-0.01375177446
0.02441665856
0.05553941199
0.07735565253
-0.08018675735
-0.07107530961
-0.06412156126
-0.05716586613
-0.05343203027
-0.05321612035
-0.05625988362
-0.06191491449
-0.06926006499
-0.07711805691
-0.08401332229
-0.08815277987
-0.08748121095
-0.07965692829
-0.06247977284
-0.03405068381
0.005564707977
0.05859388682
0.1058229269
0.1480676347
-0.1105081373
-0.08585544226
-0.07160740739
-0.0589724444
-0.0519148559
-0.04988461441
-0.05210443591
-0.05751060109
-0.06486143364
-0.07271031967
-0.07934173928
-0.08271503485
-0.08052075743
-0.06988765639
-0.04823271828
-0.01272275003
0.03823602984
0.1071319989
0.1779785619
0.2564764007
-0.1684383043
-0.09990959796
-0.07500969705
-0.05479932635
-0.0446204798
-0.04158702649
-0.04371967288
-0.04938361678
-0.05701928377
-0.06497285855
-0.07136372661
-0.0739819961
-0.07013078806
-0.05701426062
-0.03102885703
0.01192918799
0.07559938042
0.1664041493
0.2761619283
0.4377041914
-0.3984295792
-0.1381007433
-0.0749718578
-0.04708987939
-0.0335509616
-0.03003178105
-0.03280400187
-0.03926682858
-0.04756062897
-0.05594118664
-0.0625022012
-0.06503126497
-0.06099649593
-0.04697028418
-0.01875707041
0.02993531486
0.1069555728
0.2334271627
0.4198801181
0.7800232999
)


// ************************************************************************* //
