/*--------------------------------*- C++ -*----------------------------------*\
  =========                 |
  \\      /  F ield         | OpenFOAM: The Open Source CFD Toolbox
   \\    /   O peration     | Website:  https://openfoam.org
    \\  /    A nd           | Version:  13
     \\/     M anipulation  |
\*---------------------------------------------------------------------------*/
FoamFile
{
    format      ascii;
    class       volScalarField;
    location    "16";
    object      p;
}
// * * * * * * * * * * * * * * * * * * * * * * * * * * * * * * * * * * * * * //

dimensions      [0 2 -2 0 0 0 0];

internalField   nonuniform List<scalar> 
400
(
4.657518439e-09
-0.0004466611261
-0.0009692151255
-0.001339278739
-0.001450795856
-0.001263153514
-0.0007618998666
5.264054674e-05
0.001162322683
0.002521134348
0.004044562509
0.00560490561
0.007039120702
0.00817219791
0.008855404729
0.009011234245
0.008671126481
0.007992764253
0.007248800714
0.006753301055
0.000450136393
-1.177085135e-05
-0.0004640493057
-0.0007502756246
-0.0008133829974
-0.0006309424083
-0.0001913752987
0.0005086463114
0.001458547076
0.002623867137
0.003936069506
0.005287768837
0.006538366213
0.00753485702
0.008146032282
0.008302762217
0.008029944078
0.007455702701
0.00679346476
0.006287056751
0.0009929126679
0.0004068892488
-7.250396307e-05
-0.0003351112949
-0.0003865633625
-0.0002321855625
0.0001338301288
0.0007203278242
0.00152881546
0.00254091569
0.003705632822
0.004931391497
0.006088792568
0.007028652128
0.007615726616
0.007770209301
0.007500532893
0.006908995421
0.006168070458
0.005505131461
0.001359345684
0.0006006946432
2.699478574e-05
-0.0002711099442
-0.0003542509459
-0.000255444352
2.569633182e-05
0.0005058898808
0.001202560334
0.002117095889
0.00321727769
0.004423774523
0.005607686387
0.006605650183
0.007254903478
0.007441172636
0.00714048309
0.006431356415
0.005477115974
0.00454781813
0.001347166855
0.0004094661299
-0.0002824728623
-0.0006498323699
-0.0007993156163
-0.0007864086366
-0.0006121962059
-0.0002479993231
0.0003442310149
0.001190760566
0.002282625635
0.003554614288
0.004874851754
0.006054288542
0.006882213235
0.007183515164
0.006877763266
0.006011059427
0.004758282408
0.003476270866
0.0007926074231
-0.0003121016142
-0.001127204937
-0.001584900219
-0.001832352686
-0.001942261126
-0.001912628267
-0.00169810836
-0.001234047328
-0.0004612152539
0.000644705376
0.002042483329
0.003603170957
0.005107969008
0.006279488731
0.006848340436
0.006637813298
0.005632609752
0.004022109573
0.002294714953
-0.0004466099036
-0.001698198001
-0.00263535368
-0.003201994492
-0.003583123134
-0.003865183612
-0.004039812308
-0.004040893935
-0.003770412801
-0.003124875424
-0.002030004489
-0.0004824683287
0.001410264275
0.00340737586
0.005150884042
0.006235637845
0.00632563347
0.005281869338
0.003282475826
0.0009996889628
-0.002491473089
-0.003864944403
-0.004921300526
-0.005616879436
-0.00617453055
-0.006693632991
-0.007158759496
-0.007480958229
-0.007522699245
-0.007122795331
-0.006133860566
-0.004475763913
-0.002198107303
0.0004638840484
0.0030723806
0.005043359375
0.005791489013
0.004941286786
0.002582037952
-0.000374919976
-0.005435889259
-0.006901914388
-0.008072063855
-0.008915302749
-0.009695446108
-0.01052764255
-0.01139248192
-0.01217971554
-0.01270894481
-0.01274860749
-0.01205164279
-0.01041832226
-0.007784331189
-0.004322396885
-0.0005183448251
0.002838334465
0.00480351781
0.004586871439
0.002022542019
-0.001704428339
-0.00933987637
-0.01086417407
-0.01213438701
-0.0131317619
-0.01416902
-0.01538495415
-0.01676396862
-0.01818085053
-0.01941403917
-0.02015376702
-0.02002941126
-0.01867417994
-0.01584004059
-0.01154614489
-0.006245547703
-0.0009123041965
0.003051176433
0.004197575532
0.001809181483
-0.00269438495
-0.01422732287
-0.01576843068
-0.01710411873
-0.01822784018
-0.01951788536
-0.02115151175
-0.02312961068
-0.02532289788
-0.02747619761
-0.02920170604
-0.0299910261
-0.02927191185
-0.02654088775
-0.02154872177
-0.01457918556
-0.006687592373
0.0002318301529
0.00380867192
0.002325773466
-0.002754043313
-0.0200968887
-0.02159941196
-0.02292223738
-0.02407467452
-0.02553356631
-0.02753880117
-0.03012389759
-0.03316807172
-0.03639330931
-0.03934159482
-0.04136751803
-0.04167901537
-0.03945154826
-0.03407029128
-0.02547365928
-0.01459612435
-0.003722101486
0.003657542176
0.004267450728
-0.0007955172516
-0.02695930624
-0.02833432946
-0.02948148913
-0.03044404108
-0.03185946258
-0.03406544017
-0.0371433877
-0.0409888132
-0.04530788014
-0.04958165598
-0.05303841626
-0.05466959683
-0.05332588302
-0.04794989867
-0.03797762779
-0.02395539679
-0.008277279501
0.004452076078
0.008861320299
0.005065021204
-0.03492675174
-0.03599569943
-0.0366445452
-0.03700941453
-0.03799548467
-0.04007990563
-0.04339621599
-0.04784887995
-0.05312100063
-0.05863191246
-0.06349341825
-0.06650141115
-0.06620558406
-0.06110601976
-0.05005534928
-0.03296586997
-0.01191423736
0.007718075618
0.01817721674
0.01788718459
-0.0444063351
-0.04474862679
-0.04427225897
-0.04335681422
-0.04333182639
-0.04483657194
-0.04802868594
-0.05278560233
-0.0587353295
-0.06521293779
-0.0712074269
-0.07533377554
-0.07587664205
-0.07094883875
-0.05884732627
-0.03873283389
-0.01192746796
0.01609635682
0.03542846911
0.04216682338
-0.05644048841
-0.05506947346
-0.0522679971
-0.04901519487
-0.04722557982
-0.04762974284
-0.05031337603
-0.0550495101
-0.06134940475
-0.06841515345
-0.07508194573
-0.07977526072
-0.08053418054
-0.07513647557
-0.06140944333
-0.03780182639
-0.004611440118
0.03345656781
0.06510885085
0.08351176127
-0.07327738993
-0.06803993662
-0.06058083478
-0.05345147348
-0.04906445853
-0.0479093064
-0.04979521241
-0.05427000847
-0.06063954094
-0.06791150816
-0.0747249342
-0.07928726887
-0.07937791977
-0.07243909563
-0.05584940002
-0.02738909463
0.01377195015
0.06455278457
0.113319639
0.1489100676
-0.101917023
-0.08603519603
-0.06874883178
-0.0556269434
-0.04794825451
-0.04504270314
-0.04610691936
-0.05030594082
-0.05664503797
-0.06389147207
-0.07048282229
-0.07439256946
-0.07311853757
-0.06371958218
-0.04299427909
-0.007840708024
0.04412635111
0.112627259
0.1889039595
0.2557956233
-0.1741528348
-0.1133333882
-0.07303839601
-0.05185063087
-0.04136055427
-0.03745534325
-0.03840279523
-0.04288762497
-0.04955229955
-0.05693935863
-0.06339706765
-0.06675980053
-0.06427987848
-0.05266184666
-0.02804601435
0.01405117362
0.07906935496
0.1730984577
0.3004508198
0.449452632
-0.3540452
-0.1537291026
-0.06963749207
-0.04263793528
-0.03147656593
-0.02745931267
-0.02892613031
-0.03422379158
-0.04165770246
-0.04961747477
-0.05633555755
-0.05962469095
-0.05674944342
-0.04433327178
-0.01789581798
0.02873392338
0.1053619501
0.2299309714
0.4313933474
0.7327629373
)
;

boundaryField
{
    movingWall
    {
        type            zeroGradient;
    }
    fixedWalls
    {
        type            zeroGradient;
    }
    frontAndBack
    {
        type            empty;
    }
}


// ************************************************************************* //
