/*--------------------------------*- C++ -*----------------------------------*\
  =========                 |
  \\      /  F ield         | OpenFOAM: The Open Source CFD Toolbox
   \\    /   O peration     | Website:  https://openfoam.org
    \\  /    A nd           | Version:  13
     \\/     M anipulation  |
\*---------------------------------------------------------------------------*/
FoamFile
{
    format      ascii;
    class       scalarField;
    location    "16";
    object      p_all;
}
// * * * * * * * * * * * * * * * * * * * * * * * * * * * * * * * * * * * * * //


400
(
2.587726254e-07
-0.0005452053957
-0.000885584545
-0.001011585074
-0.0009315187874
-0.0006777103301
-0.0002876547689
0.0002027226063
0.0007569609323
0.00133466123
0.001890269253
0.002371061585
0.00272174491
0.00288929761
0.002832195574
0.002532358213
0.002010022312
0.001322179354
0.0006649931701
7.027354095e-05
0.0005866452311
7.298648375e-06
-0.0003547532715
-0.0004955714686
-0.0004635335761
-0.0002851850933
1.010898062e-05
0.0003930655259
0.0008322970578
0.001290611113
0.00172825684
0.00209416686
0.002338043129
0.002412584382
0.002283913299
0.00194315844
0.001416863268
0.0007698438572
0.0001738691062
-0.0004877938328
0.0009492828977
0.0003070469527
-9.241720261e-05
-0.0002372143522
-0.0002295442275
-9.945231285e-05
0.0001289913158
0.0004344482743
0.0007931789882
0.001173396799
0.0015426593
0.001847624892
0.002038261816
0.002065899139
0.00189540136
0.001516860529
0.0009540751605
0.0002633876694
-0.0004334274575
-0.001268870391
0.0009720336177
0.0002562569999
-0.0001920397598
-0.000342688615
-0.0003501577699
-0.0002512150941
-6.657290749e-05
0.0001910707525
0.0005080691957
0.0008639770616
0.001218215762
0.001527397251
0.001730992498
0.001768591668
0.001591372628
0.001175903702
0.0005338706028
-0.0002881593577
-0.001201436687
-0.002349781575
0.000476891133
-0.0002861849434
-0.0007630410579
-0.0009129266463
-0.0009318045033
-0.00086090741
-0.0007153480237
-0.0004957677751
-0.0002020524814
0.0001563962755
0.0005492128507
0.0009281526775
0.001222168493
0.001350540486
0.001236985644
0.0008283578551
0.0001105615378
-0.0008844484502
-0.002091928931
-0.003617417762
-0.0006874287632
-0.001465970394
-0.001952962647
-0.002101968471
-0.002142102046
-0.002115572966
-0.002027719742
-0.001861644508
-0.001596387469
-0.001221747412
-0.0007533161349
-0.0002355891831
0.0002489879424
0.0005908407128
0.0006683269308
0.0003735355113
-0.0003590068841
-0.001527519686
-0.00309540877
-0.005098984471
-0.002658019261
-0.003417871276
-0.003907714908
-0.004070707264
-0.004164735186
-0.004229641425
-0.004256072843
-0.004202453536
-0.004016755751
-0.003655539727
-0.003104462443
-0.002389262778
-0.00159569265
-0.0008658156321
-0.0003874625649
-0.0003611648431
-0.0009497248941
-0.002220040592
-0.004189164905
-0.00678058042
-0.005543979243
-0.006257618192
-0.006753925617
-0.006965010492
-0.007174139406
-0.007416634262
-0.00766430992
-0.007843355748
-0.007857947347
-0.007612211858
-0.007036404979
-0.006107531228
-0.004892400849
-0.003555307019
-0.002366668422
-0.001669235425
-0.001798787229
-0.002969777436
-0.005320511813
-0.008609936586
-0.009414958161
-0.01006072517
-0.01057565946
-0.01088444845
-0.01129449063
-0.01183748518
-0.01246512014
-0.01306572993
-0.01348694732
-0.01355714142
-0.01311292256
-0.01205085526
-0.01035936098
-0.008191476886
-0.00589602345
-0.004006433711
-0.003138301479
-0.003792480534
-0.006374234744
-0.01043534087
-0.01428619899
-0.01484543678
-0.0153905786
-0.01584577809
-0.01654713168
-0.01752884745
-0.01872620746
-0.01998878458
-0.02109872018
-0.02178818509
-0.02176804892
-0.02078214032
-0.01868417548
-0.01553754916
-0.01171971132
-0.007969851541
-0.005299302537
-0.004703767976
-0.007125091488
-0.01192009802
-0.02011290683
-0.02056426452
-0.02113282819
-0.0217503854
-0.02279836857
-0.02432694701
-0.02626485444
-0.02842824178
-0.03053239883
-0.03220089175
-0.03298836638
-0.03243321781
-0.03017807153
-0.02608064942
-0.02043575938
-0.01412503555
-0.008622510904
-0.005664947873
-0.007160579826
-0.0124065347
-0.02680501922
-0.02711283672
-0.02765212971
-0.02836813169
-0.02972661385
-0.03181621137
-0.03457423487
-0.03779331567
-0.04112742959
-0.04409117533
-0.04607052484
-0.0463618472
-0.04434972213
-0.03955378149
-0.03202436785
-0.02261320424
-0.01319236437
-0.006421337991
-0.005749752548
-0.01070781616
-0.03427547737
-0.03436188262
-0.03473294357
-0.03534429813
-0.03682432391
-0.03933227985
-0.0428305734
-0.04709674486
-0.05172954515
-0.05614162851
-0.05956083196
-0.0610736475
-0.05966826822
-0.05455270993
-0.04534770465
-0.03261678825
-0.01838083747
-0.00618337115
-0.001618809933
-0.0048227564
-0.04254568154
-0.04221913152
-0.04213638301
-0.04223440931
-0.04344611992
-0.04603951422
-0.05001161705
-0.05512183913
-0.06090812525
-0.06668487435
-0.0715291743
-0.0743068213
-0.07373458389
-0.06858679093
-0.05799395211
-0.04199299421
-0.0223795766
-0.003204203184
0.007393064536
0.008381293036
-0.05194494057
-0.05070025841
-0.04961983623
-0.04852074044
-0.04886441642
-0.05104983152
-0.05509200825
-0.06070593675
-0.06733775283
-0.07418952053
-0.08018514451
-0.08398623763
-0.0840520155
-0.07877131087
-0.06678814207
-0.04747737572
-0.02208767557
0.005537101213
0.02474632879
0.03355235008
-0.06359354762
-0.06013216625
-0.05704505952
-0.05371434765
-0.05241321718
-0.05362081664
-0.0572939712
-0.06306109095
-0.07017685208
-0.07771356927
-0.08440962069
-0.08871282669
-0.08884045658
-0.08279564181
-0.06882040882
-0.04559971897
-0.01373703002
0.02443032916
0.05555144364
0.07736425694
-0.08013179879
-0.07102618559
-0.06407927948
-0.0571280634
-0.05339328457
-0.05317050586
-0.05620360074
-0.06184819229
-0.06918550147
-0.07704163643
-0.083941535
-0.08809157971
-0.087433767
-0.07962866295
-0.06246769042
-0.0340508019
0.005551154734
0.05859590611
0.1058178084
0.1480612093
-0.1104647499
-0.08581817377
-0.07157881127
-0.05894940195
-0.05189147025
-0.04985310565
-0.05206109105
-0.05745531096
-0.06479737406
-0.07264345341
-0.07927904026
-0.08266321682
-0.08048650131
-0.06986908307
-0.04823062591
-0.01273362391
0.03821698561
0.1071140647
0.1779604194
0.2564574047
-0.1684058817
-0.09988221157
-0.07499260939
-0.05478831767
-0.04460827499
-0.04156629621
-0.04368635301
-0.04933750402
-0.05696343797
-0.0649129479
-0.07130642175
-0.07393344645
-0.07009537197
-0.05699758549
-0.03102859594
0.01191632818
0.07557804545
0.1663804114
0.2761376231
0.4376813346
-0.3983979054
-0.1380759208
-0.07495798121
-0.04708318449
-0.03354370895
-0.03001655088
-0.03277648388
-0.03922647893
-0.04751010507
-0.05588564776
-0.06244797087
-0.06498453072
-0.06096202697
-0.04695157191
-0.01875359336
0.02992609073
0.1069376389
0.2334055985
0.4198576322
0.7800016593
)


// ************************************************************************* //
