/*--------------------------------*- C++ -*----------------------------------*\
  =========                 |
  \\      /  F ield         | OpenFOAM: The Open Source CFD Toolbox
   \\    /   O peration     | Website:  https://openfoam.org
    \\  /    A nd           | Version:  13
     \\/     M anipulation  |
\*---------------------------------------------------------------------------*/
FoamFile
{
    format      ascii;
    class       surfaceScalarField;
    location    "16";
    object      phi;
}
// * * * * * * * * * * * * * * * * * * * * * * * * * * * * * * * * * * * * * //

dimensions      [0 3 -1 0 0 0 0];

internalField   nonuniform List<scalar> 
760
(
-1.321708298e-05
1.321377886e-05
-7.190296585e-05
5.868640163e-05
-0.0001617604196
8.985711028e-05
-0.0002646769056
0.0001029164056
-0.0003674665099
0.0001027897347
-0.0004605316357
9.306509936e-05
-0.0005366354204
7.610366046e-05
-0.0005900556154
5.342010161e-05
-0.0006163294768
2.627381393e-05
-0.0006124955596
-3.833952167e-06
-0.0005775264443
-3.496916685e-05
-0.0005131265717
-6.439993775e-05
-0.0004241927024
-8.893391395e-05
-0.0003190649932
-0.0001051277504
-0.0002092250555
-0.0001098399958
-0.0001082893863
-0.0001009357338
-3.013957104e-05
-7.814986581e-05
1.396038666e-05
-4.409998885e-05
2.180703433e-05
-7.84668666e-06
2.180696934e-05
-6.855119083e-05
8.176547983e-05
-0.0002451951359
0.0002353297173
-0.0004922779337
0.000336939718
-0.000770394274
0.0003810329017
-0.001047861177
0.0003802565884
-0.001299893472
0.0003450972261
-0.001507084069
0.0002832941337
-0.001654140045
0.0002004759916
-0.001729470136
0.0001016037992
-0.001725792377
-7.511831082e-06
-0.001640728863
-0.0001200327836
-0.001478873706
-0.0002262551717
-0.001252493422
-0.0003153142675
-0.0009820731201
-0.0003755481212
-0.0006955213174
-0.0003963918674
-0.0004255744282
-0.000370882686
-0.0002051098511
-0.000298614501
-5.999931726e-05
-0.0001892106196
-5.926390877e-07
-6.725346985e-05
2.121430411e-05
-0.0001226078924
0.0002043730136
-0.000413866955
0.0005265886194
-0.000806523231
0.0007295960673
-0.001243891698
0.0008184013128
-0.001680312221
0.0008166769359
-0.002079169482
0.0007439543672
-0.002411040734
0.0006151653296
-0.00265228943
0.0004417246375
-0.00278467421
0.0002339885259
-0.002796364338
4.178250027e-06
-0.002682441459
-0.0002339557212
-0.002448320777
-0.0004603759041
-0.002110501592
-0.000653133481
-0.001697725328
-0.0007883244028
-0.001250136411
-0.0008439808113
-0.0008158608724
-0.0008051582669
-0.0004443031704
-0.0006701722542
-0.0001762059389
-0.0004573079258
-3.224561473e-05
-0.0002112138433
-1.103123059e-05
-0.00017159303
0.0003759658858
-0.000570968269
0.0009259640221
-0.001102940317
0.001261568146
-0.00169347566
0.001408936559
-0.002284583855
0.001407785023
-0.002830006687
0.001289377142
-0.003292052201
0.001077210795
-0.003639590917
0.0007892632978
-0.003847511497
0.0004419090741
-0.003897294893
5.396163579e-05
-0.003779889366
-0.000351361255
-0.003497147948
-0.0007431173346
-0.003065603747
-0.001084677678
-0.002518284752
-0.001335643378
-0.00190496067
-0.00145730487
-0.001289040708
-0.001421078205
-0.0007398107316
-0.001219402247
-0.0003199333158
-0.0008771853975
-7.105475674e-05
-0.0004600924008
-8.208585279e-05
-0.0002164136363
0.0005923796463
-0.0007168570795
0.001426407434
-0.001381925334
0.001926636349
-0.002121529826
0.00214854098
-0.002867016524
0.002153271703
-0.003564327052
0.001986687657
-0.004168962268
0.001681845964
-0.004642849893
0.00126315088
-0.004953212734
0.000752271909
-0.005073253072
0.0001740019868
-0.004984919658
-0.000439694676
-0.004682134002
-0.001045902995
-0.004175818917
-0.001590992738
-0.003498245683
-0.002013216565
-0.002705928458
-0.002249622036
-0.001878597357
-0.002248409247
-0.001111564269
-0.001986435344
-0.0005001144844
-0.001488635231
-0.0001189865956
-0.0008412202073
-0.0002010723913
-0.0002566874326
0.0008490670908
-0.0008491382411
0.00201885813
-0.001638142709
0.002715640777
-0.002520327383
0.003030725626
-0.003418697484
0.003051641826
-0.004273475455
0.002841465633
-0.005034967383
0.002443337868
-0.005658882704
0.001887066194
-0.006104211192
0.001197600427
-0.006333530928
0.0004033217584
-0.006315958439
-0.0004572671539
-0.006031597424
-0.001330264004
-0.005478831177
-0.002143758951
-0.004682167402
-0.00280988028
-0.003699760507
-0.003232028844
-0.002627075318
-0.003321094347
-0.001591804262
-0.003021706383
-0.0007352913518
-0.002345148172
-0.000181851361
-0.001394660097
-0.0003829237697
-0.0002905023691
0.001139569378
-0.0009619019027
0.002690257655
-0.00185994873
0.003613687609
-0.002871799073
0.00404257597
-0.003915075821
0.004094918616
-0.004926821932
0.003853211764
-0.005854278026
0.003370793959
-0.006648386706
0.002681174893
-0.007260282001
0.001809495781
-0.007640748696
0.0007837885149
-0.007742986251
-0.0003550295645
-0.007527824918
-0.001545425321
-0.006973339232
-0.002698244612
-0.00608676545
-0.003696454008
-0.004918567744
-0.004400226451
-0.003574386094
-0.004665275891
-0.002217263812
-0.004378828615
-0.001049369855
-0.003513042097
-0.0002680837455
-0.002175946125
-0.0006510075398
-0.0003153583567
0.001454927701
-0.001046725183
0.003421624551
-0.002030673754
0.004597636195
-0.003149046454
0.005160948678
-0.004317341811
0.005263214038
-0.005472344585
0.005008214579
-0.006561035479
0.004459484863
-0.007532211718
0.003652351158
-0.008331295757
0.002608579884
-0.008898421141
0.001350913967
-0.009170322101
-8.312857218e-05
-0.009085146592
-0.00163060081
-0.008593731244
-0.003189659957
-0.007674740217
-0.004615445014
-0.006356348197
-0.005718618396
-0.00474031576
-0.006281308232
-0.003019220914
-0.006099923391
-0.001467776303
-0.005064486643
-0.0003877507825
-0.003255971613
-0.00103875826
-0.0003287405077
0.001783668238
-0.001094879182
0.004187763298
-0.002132010678
0.005634767684
-0.003320634533
0.006349572546
-0.004577289941
0.006519869529
-0.005841564254
0.00627248894
-0.007063588991
0.0056815096
-0.008193977103
0.004782739279
-0.009176873949
0.003591476774
-0.009946286644
0.002120326701
-0.01042552127
0.0003961060947
-0.0105320492
-0.001524072895
-0.0101854615
-0.003536247671
-0.009325449877
-0.005475456659
-0.007939265858
-0.007104802383
-0.006100184012
-0.008120390019
-0.004009055993
-0.008191051373
-0.002012575238
-0.007060967386
-0.0005522168599
-0.004716329999
-0.001590974962
-0.0003295573671
0.002113225649
-0.001100798318
0.004959004311
-0.002149535585
0.006683504919
-0.0033580524
0.007558089372
-0.004646691404
0.007808508625
-0.005960809717
0.007586607294
-0.007257452392
0.006978152248
-0.008494100351
0.006019387213
-0.009620234597
0.004717611033
-0.01057169849
0.003071790617
-0.01126769452
0.001092102134
-0.01161134283
-0.001180424596
-0.01149500164
-0.003652588891
-0.01081421078
-0.006156247527
-0.009497233164
-0.008421780005
-0.007555739619
-0.01006188355
-0.005157302561
-0.01058948847
-0.002694095292
-0.009524174778
-0.0007735141147
-0.006636911194
-0.002364488931
-0.0003199655033
0.002433191194
-0.001066597538
0.005705636409
-0.00208001251
0.007696919844
-0.003245946428
0.008724023294
-0.004490963656
0.009053525945
-0.005769137429
0.008864781112
-0.007048335949
0.008257350727
-0.008298477588
0.007269528797
-0.009482274665
0.005901408085
-0.01054802005
0.004137536006
-0.01142372004
0.001967802136
-0.01201219586
-0.0005919487698
-0.0121915849
-0.003473199877
-0.01181841191
-0.006529420531
-0.01075249963
-0.009487692275
-0.00891078928
-0.01190359388
-0.006368269863
-0.01313200798
-0.003497258865
-0.012395186
-0.001062537041
-0.009071633002
-0.00342702593
-0.0003077237124
0.002740914954
-0.00100738384
0.006405296602
-0.001939570025
0.008629105967
-0.002993426231
0.009777879484
-0.004104598013
0.0101646978
-0.005239506255
0.009999689419
-0.006381017647
0.009398862099
-0.007516867567
0.008405378645
-0.008630517291
0.007015057749
-0.00969335008
0.005200368772
-0.01065677026
0.002931222327
-0.0114410661
0.0001923470418
-0.01193241226
-0.002981853703
-0.01196705433
-0.006494778432
-0.01134467959
-0.01011006693
-0.009868803868
-0.01337946951
-0.007459208749
-0.01554160315
-0.004362831832
-0.01549156312
-0.001425050515
-0.01200941428
-0.004852076554
-0.0003095122136
0.003050427214
-0.0009572258424
0.007053010284
-0.001771311948
0.009443192
-0.002643300087
0.01064986759
-0.003523154533
0.01104455227
-0.0043955136
0.01087204854
-0.005263342103
0.01026669062
-0.006136904804
0.009278941292
-0.007025744778
0.007903897628
-0.007931819566
0.006106443473
-0.008840878244
0.003840280958
-0.009712620192
0.001064089005
-0.01045844387
-0.002236030016
-0.01093063751
-0.006022584724
-0.01089990209
-0.0101408022
-0.01006787813
-0.0142114933
-0.008158544762
-0.01745093649
-0.005167689573
-0.0184824184
-0.001854120526
-0.0153229833
-0.006706197232
-0.0003560787569
0.003406506011
-0.0009757345253
0.00767266608
-0.001650291797
0.01011774919
-0.002274733052
0.01127430883
-0.002824481009
0.01159430019
-0.003312733296
0.01136030082
-0.003769606616
0.01072356398
-0.004232057207
0.009741391882
-0.004737937384
0.008409777717
-0.005321912616
0.006690418673
-0.006008830214
0.004527198485
-0.00680360395
0.001858862667
-0.007671591331
-0.001368042685
-0.008512738567
-0.00518143748
-0.009121086745
-0.009532453891
-0.009148200728
-0.01418437918
-0.008131740199
-0.01846739695
-0.005712435384
-0.02090172316
-0.002318418398
-0.01871700029
-0.009024615687
-0.000501332894
0.003907838954
-0.001154218676
0.008325551863
-0.001680090144
0.01064362055
-0.0019892484
0.01158346712
-0.002105384364
0.01171043617
-0.002087184003
0.01134210045
-0.002001198727
0.01063757869
-0.001914781755
0.009654975033
-0.001892997134
0.008387993058
-0.002000082669
0.006797504168
-0.002296265111
0.004823380848
-0.00283191766
0.00239451511
-0.003634389728
-0.0005655707335
-0.004679798568
-0.00413602878
-0.005843921632
-0.008368330873
-0.006814861344
-0.01321343941
-0.007021459964
-0.01826079824
-0.005718730305
-0.02220445269
-0.002740108564
-0.02169562196
-0.01176472431
-0.0008318622352
0.004739701265
-0.001607910442
0.009101600099
-0.001956662356
0.01099237238
-0.001847722842
0.0114745277
-0.001396169232
0.01125888268
-0.0007307933455
0.01067672463
3.411426112e-05
0.009872671273
0.0008017136379
0.008887375537
0.001480554632
0.007709152089
0.001983976212
0.006294082555
0.002224801848
0.00458255516
0.002115647477
0.00250366942
0.00157148925
-2.141270125e-05
0.0005346702357
-0.003099209861
-0.0009932034486
-0.006840457263
-0.002835587061
-0.0113710558
-0.004464397235
-0.01663198798
-0.00481334016
-0.0218555098
-0.00294514329
-0.02356381879
-0.01470986756
-0.001466468099
0.006206169457
-0.002382516755
0.01001764893
-0.002378548755
0.01098840438
-0.001611263712
0.01070724274
-0.0003597674333
0.01000738644
0.001151571348
0.009165386007
0.002758507158
0.008265735542
0.004335542494
0.00731034032
0.00577765133
0.006267043292
0.00698460888
0.005087125026
0.00785305041
0.003714113695
0.008271026233
0.002085693632
0.008114041751
0.000135571935
0.007256031341
-0.002241199528
0.005578080994
-0.005162506984
0.003068174982
-0.00886114973
7.523670651e-05
-0.0136390503
-0.002448269454
-0.01933200306
-0.002601977361
-0.02341011098
-0.01731184493
-0.002365821328
0.00857199079
-0.002965259518
0.01061708752
-0.001926093765
0.009949238551
7.564622891e-05
0.008705502749
0.002527276365
0.007555756236
0.005130798722
0.006561863752
0.007708972963
0.005687561416
0.01014311831
0.0048761951
0.01233799133
0.004072170364
0.01420092069
0.003224195788
0.01563042573
0.00228460885
0.0165087724
0.001207347252
0.01668949498
-4.515062496e-05
0.01602091643
-0.001572620827
0.01430011288
-0.003441703408
0.01132890567
-0.005889942661
0.007052494343
-0.00936263885
0.002199693293
-0.01447920208
-0.001028161123
-0.02018225656
-0.01834000618
-0.002150130982
0.01072212155
-7.19988956e-05
0.008538956316
0.003741058248
0.006136181391
0.00771755153
0.004729009556
0.01155799999
0.003715307871
0.01513554479
0.002984319045
0.01839210248
0.002431003824
0.0212939704
0.001974327282
0.02380456332
0.001561577531
0.0258721125
0.001156646698
0.02742363972
0.0007330816877
0.0283587937
0.0002721933019
0.02857098977
-0.0002573464529
0.02788417812
-0.0008858091045
0.02609685245
-0.00165437755
0.0229065149
-0.002699605108
0.01790565307
-0.004361776951
0.01076603794
-0.007339586832
0.002911802804
-0.01232802141
-0.01542820329
0.01072212156
0.01926107779
0.02539725916
0.03012626873
0.03384157664
0.03682589576
0.03925689965
0.04123122696
0.04279280445
0.04394945106
0.04468253277
0.04495472615
0.04469737977
0.04381157085
0.04215719342
0.03945758832
0.0350958114
0.02775622468
0.01542820326
)
;

boundaryField
{
    movingWall
    {
        type            calculated;
        value           uniform 0;
    }
    fixedWalls
    {
        type            calculated;
        value           uniform 0;
    }
    frontAndBack
    {
        type            empty;
    }
}


// ************************************************************************* //
