/*--------------------------------*- C++ -*----------------------------------*\
  =========                 |
  \\      /  F ield         | OpenFOAM: The Open Source CFD Toolbox
   \\    /   O peration     | Website:  https://openfoam.org
    \\  /    A nd           | Version:  13
     \\/     M anipulation  |
\*---------------------------------------------------------------------------*/
FoamFile
{
    format      ascii;
    class       surfaceScalarField;
    location    "16";
    object      phi_0;
}
// * * * * * * * * * * * * * * * * * * * * * * * * * * * * * * * * * * * * * //

dimensions      [0 3 -1 0 0 0 0];

internalField   nonuniform List<scalar> 
760
(
-1.321586605e-05
1.321494024e-05
-7.190202821e-05
5.868619218e-05
-0.0001617586824
8.985641211e-05
-0.0002646743309
0.0001029154985
-0.0003674631439
0.0001027887783
-0.0004605274624
9.30643129e-05
-0.0005366306141
7.610313893e-05
-0.0005900505099
5.341985117e-05
-0.0006163244411
2.627384273e-05
-0.0006124909319
-3.833619281e-06
-0.0005775225121
-3.496851541e-05
-0.0005131235475
-6.439901657e-05
-0.0004241907141
-8.893283131e-05
-0.0003190640369
-0.0001051266466
-0.0002092249847
-0.000109839024
-0.0001082899346
-0.0001009350388
-3.014038904e-05
-7.814955029e-05
1.395964872e-05
-4.41000666e-05
2.180663212e-05
-7.847015686e-06
2.18065608e-05
-6.855023408e-05
8.176527209e-05
-0.000245192244
0.0002353279298
-0.0004922724249
0.0003369366057
-0.0007703860177
0.0003810290921
-0.0010478502
0.0003802528005
-0.001299880134
0.0003450940161
-0.001507069043
0.0002832918453
-0.001654124163
0.0002004748353
-0.001729454287
0.0001016038828
-0.001725777451
-7.510510525e-06
-0.001640715672
-0.0001200303476
-0.001478862894
-0.0002262518609
-0.001252485366
-0.000315310432
-0.0009820678786
-0.0003755442034
-0.0006955186106
-0.0003963883569
-0.0004255736779
-0.0003708800412
-0.0002051102689
-0.0002986130459
-6.000005178e-05
-0.0001892104166
-5.930461111e-07
-6.725418135e-05
2.121347389e-05
-0.0001226062389
0.0002043713192
-0.0004138620025
0.00052658345
-0.0008065139249
0.0007295885122
-0.001243877631
0.0008183928053
-0.001680293573
0.0008166687018
-0.002079146986
0.0007439473347
-0.002411015479
0.0006151601889
-0.002652262693
0.0004417218806
-0.002784647371
0.0002339884237
-0.002796338655
4.180678259e-06
-0.002682418253
-0.0002339507862
-0.002448301024
-0.0004603690949
-0.002110485941
-0.0006531255052
-0.001697714005
-0.0007883161348
-0.001250129175
-0.0008439731993
-0.0008158570468
-0.0008051522006
-0.0004443017418
-0.0006701683937
-0.0001762057561
-0.0004573064708
-3.224569993e-05
-0.0002112143112
-1.103222255e-05
-0.0001715907189
0.0003759620476
-0.0005709613774
0.0009259539388
-0.001102927366
0.001261554376
-0.001693456178
0.001408921514
-0.002284558186
0.001407770633
-0.002829975791
0.001289364877
-0.003292017436
0.001077201755
-0.003639553897
0.0007892582437
-0.003847473965
0.0004419083994
-0.003897258664
5.396531821e-05
-0.003779855943
-0.0003513535487
-0.003497118663
-0.0007431063874
-0.003065579571
-0.001084664586
-0.00251826619
-0.001335629501
-0.001904947686
-0.001457291699
-0.001289032721
-0.001421067178
-0.0007398066648
-0.001219394487
-0.000319931807
-0.0008771813862
-7.105449205e-05
-0.0004600916639
-8.208670164e-05
-0.0002164109562
0.0005923730944
-0.0007168485946
0.001426391482
-0.001381909396
0.001926615084
-0.002121505954
0.002148517961
-0.002866985178
0.002153249746
-0.003564289311
0.001986668908
-0.004168919642
0.001681831998
-0.004642804207
0.001263142742
-0.004953165985
0.000752270127
-0.005073207267
0.0001740065665
-0.004984876638
-0.0004396842014
-0.004682095404
-0.001045887629
-0.004175786062
-0.00159097392
-0.00349821944
-0.002013196108
-0.002705909138
-0.002249601993
-0.00187858463
-0.00224839169
-0.001111557126
-0.001986422025
-0.0005001114116
-0.001488627149
-0.0001189858998
-0.0008412171621
-0.0002010726003
-0.0002566845099
0.0008490575867
-0.0008491288163
0.002018835707
-0.001638124978
0.002715611201
-0.002520300814
0.00303069374
-0.003418662556
0.00305161141
-0.004273433277
0.00284143954
-0.005034919514
0.002443318157
-0.005658831032
0.001887054211
-0.006104157789
0.001197596862
-0.006333477897
0.0004033266647
-0.006315907785
-0.000457254317
-0.006031551009
-0.001330244402
-0.005478790637
-0.002143734283
-0.004682134007
-0.002809852732
-0.003699735013
-0.003232000985
-0.002627057788
-0.00332106892
-0.001591793919
-0.003021685924
-0.0007352866403
-0.002345134468
-0.000181850197
-0.001394653562
-0.0003829228332
-0.0002904994175
0.001139556947
-0.0009618924148
0.002690228615
-0.001859930777
0.003613649501
-0.002871772037
0.004042534961
-0.00391504012
0.004094879456
-0.004926778616
0.003853177988
-0.005854228587
0.003370768086
-0.006648332953
0.002681158561
-0.007260225917
0.001809489834
-0.007640692312
0.0007837930697
-0.00774293156
-0.0003550150603
-0.007527773832
-0.001545402121
-0.006973293547
-0.002698214556
-0.00608672675
-0.003696419527
-0.004918537237
-0.004400190501
-0.003574364348
-0.004665241818
-0.002217250477
-0.00437879982
-0.001049363543
-0.003513021421
-0.0002680820783
-0.002175934973
-0.0006510049737
-0.0003153557287
0.001454912653
-0.00104671662
0.00342158945
-0.00203065735
0.004597590153
-0.003149021523
0.005160899094
-0.004317308671
0.00526316659
-0.005472304142
0.005008173452
-0.006560989059
0.004459453003
-0.007532160931
0.003652330456
-0.008331242352
0.002608571303
-0.008898366886
0.001350917648
-0.009170268775
-8.311314191e-05
-0.00908509587
-0.001630575005
-0.008593684812
-0.003189625598
-0.007674699728
-0.004615404604
-0.006356315168
-0.005718575059
-0.004740291288
-0.006281265705
-0.00301920528
-0.006099885845
-0.001467768585
-0.005064458119
-0.0003877486011
-0.003255954913
-0.001038753633
-0.0003287385763
0.00178365121
-0.001094872552
0.004187723421
-0.002131997643
0.005634715175
-0.003320614397
0.00634951582
-0.004577262905
0.006519815106
-0.005841531037
0.006272441612
-0.007063550689
0.005681472692
-0.00819393506
0.004782714877
-0.009176829571
0.003591465891
-0.009946241275
0.002120329432
-0.01042547613
0.0003961217739
-0.01053200551
-0.001524045593
-0.01018542048
-0.003536210611
-0.009325412852
-0.005475412225
-0.007939234332
-0.007104753569
-0.006100159465
-0.008120340561
-0.004009039442
-0.008191005864
-0.002012566578
-0.007060930972
-0.0005522142395
-0.004716307219
-0.001590967907
-0.000329556424
0.002113207584
-0.001100794525
0.00495896156
-0.002149527586
0.006683448187
-0.003358039543
0.007558027767
-0.004646673784
0.007808449371
-0.005960787851
0.007586555736
-0.007257427107
0.006978112027
-0.008494072679
0.006019360526
-0.00962020554
0.004717598841
-0.01057166885
0.003071792848
-0.01126766486
0.001092117891
-0.01161131356
-0.001180396821
-0.01149497313
-0.003652550999
-0.01081418365
-0.006156201683
-0.009497208439
-0.008421728759
-0.007555718812
-0.01006183016
-0.005157287312
-0.01058943734
-0.002694086581
-0.009524131685
-0.0007735112655
-0.006636882485
-0.002364479189
-0.0003199657306
0.002433173242
-0.001066597239
0.005705593131
-0.002080010812
0.007696861727
-0.00324594276
0.008723959728
-0.004490958005
0.009053464651
-0.005769130112
0.008864727909
-0.007048327489
0.008257309522
-0.008298468647
0.007269501811
-0.009482265805
0.005901396103
-0.01054801151
0.004137538652
-0.01142371165
0.001967818142
-0.01201218714
-0.0005919212404
-0.0121915752
-0.00347316288
-0.01181840078
-0.006529376059
-0.01075248723
-0.009487642282
-0.008910776642
-0.0119035407
-0.006368258836
-0.0131319551
-0.003497251492
-0.012395139
-0.001062534326
-0.009071599548
-0.003427013518
-0.000307725174
0.002740898341
-0.001007387332
0.006405255368
-0.001939575278
0.008629049642
-0.002993432775
0.009777817267
-0.004104605669
0.01016463761
-0.0052395151
0.009999637398
-0.00638102784
0.009398822383
-0.007516879307
0.008405353451
-0.008630530636
0.007015047584
-0.009693364736
0.005200372866
-0.01065678544
0.002931238926
-0.0114410807
0.0001923741189
-0.01193242457
-0.002981818933
-0.01196706289
-0.006494737678
-0.01134468348
-0.01011002164
-0.009868803187
-0.01337942094
-0.007459204934
-0.0155415533
-0.004362827519
-0.01549151638
-0.001425048429
-0.01200937848
-0.004852061935
-0.0003095148464
0.00305041311
-0.0009572330051
0.007052973632
-0.001771324062
0.009443140651
-0.002643316817
0.01064981007
-0.003523175408
0.01104449633
-0.004395538313
0.01087200038
-0.005263370349
0.0102666545
-0.006136936231
0.009278919483
-0.007025778847
0.007903890371
-0.00793185549
0.006106449655
-0.008840914869
0.00384029839
-0.009712655734
0.001064115018
-0.01045847649
-0.00223599814
-0.01093066507
-0.006022549061
-0.01089992276
-0.01014076389
-0.0100678909
-0.01421145274
-0.00815855011
-0.01745089405
-0.005167689865
-0.01848237659
-0.001854119608
-0.01532294858
-0.006706181477
-0.0003560823765
0.003406495404
-0.0009757448338
0.007672636249
-0.001650309898
0.01011770566
-0.002274758839
0.01127425901
-0.002824513626
0.01159425128
-0.003312771807
0.01136025873
-0.00376965005
0.01072353283
-0.004232104613
0.009741374136
-0.004737987511
0.008409773364
-0.005321964214
0.006690426506
-0.006008881866
0.004527216153
-0.006803654024
0.001858887238
-0.007671638005
-0.001368014135
-0.008512779755
-0.005181407303
-0.009121120357
-0.009532423256
-0.009148225003
-0.01418434806
-0.008131754482
-0.01846736454
-0.005712440928
-0.02090169014
-0.002318419068
-0.01871697039
-0.009024600425
-0.0005013371737
0.003907832478
-0.001154231209
0.008325530509
-0.001680112556
0.01064358705
-0.001989280928
0.01158342726
-0.002105425879
0.01171039632
-0.002087232815
0.01134206592
-0.002001252876
0.01063755309
-0.0019148398
0.009654961215
-0.001893057019
0.008387990596
-0.002000142692
0.006797512213
-0.002296323767
0.004823397251
-0.002831973599
0.002394537061
-0.003634441736
-0.0005655460428
-0.004679845131
-0.004136003986
-0.005843961131
-0.008368307292
-0.006814892026
-0.01321341717
-0.007021480428
-0.01826077612
-0.005718740309
-0.02220443025
-0.002740111001
-0.02169559977
-0.01176471135
-0.0008318665802
0.004739698943
-0.001607923724
0.009101587821
-0.001956686465
0.01099235006
-0.001847758379
0.01147449909
-0.001396215114
0.01125885292
-0.0007308473977
0.01067669833
3.405385998e-05
0.009872651954
0.0008016510739
0.008887364317
0.0014804916
0.007709150182
0.001983914749
0.006294089117
0.002224743518
0.004582568475
0.002115593408
0.002503687112
0.001571439583
-2.139221201e-05
0.000534626126
-0.003099190599
-0.0009932412991
-0.006840439924
-0.00283561774
-0.01137104081
-0.004464419785
-0.01663197411
-0.004813352378
-0.02185549758
-0.002945146987
-0.02356380515
-0.0147098583
-0.001466471447
0.006206170344
-0.002382528299
0.01001764453
-0.002378570505
0.01098839269
-0.001611296532
0.01070722535
-0.0003598106341
0.01000736689
0.001151519851
0.009165367757
0.00275845031
0.008265721464
0.004335482872
0.007310331826
0.005777591853
0.006267041272
0.006984551871
0.00508712914
0.007852997494
0.003714122843
0.008270978321
0.0020857062
0.008114000062
0.0001355858272
0.00725599525
-0.002241185923
0.005578050574
-0.005162495362
0.003068150512
-0.0088611409
7.522130991e-05
-0.01363904465
-0.002448280399
-0.01933199618
-0.002601981236
-0.02341010424
-0.01731183954
-0.002365822356
0.008571992887
-0.002965265954
0.01061708765
-0.001926107919
0.009949234756
7.562289457e-05
0.008705494903
0.002527244007
0.007555746031
0.00513075845
0.006561853425
0.007708927035
0.005687552913
0.01014306931
0.004876189592
0.01233794206
0.00407216857
0.0142008736
0.003224197646
0.01563038275
0.002284613741
0.01650873486
0.001207354158
0.01668946261
-4.51418211e-05
0.0160208899
-0.001572613238
0.01430009156
-0.003441697067
0.01132888886
-0.00588993833
0.007052480944
-0.009362636752
0.002199684963
-0.01447920021
-0.00102816479
-0.02018225449
-0.01834000432
-0.002150129572
0.01072212293
-7.199958995e-05
0.008538957151
0.003741054426
0.006136180476
0.007717541935
0.004729007183
0.01155798345
0.003715304464
0.01513552149
0.002984315394
0.01839207371
0.002431000699
0.02129393812
0.001974325204
0.02380452988
0.001561576826
0.02587208016
0.001156647384
0.02742361035
0.0007330835517
0.02835876856
0.0002721959062
0.02857097007
-0.0002573434313
0.02788416323
-0.0008858064397
0.02609684171
-0.00165437555
0.02290650736
-0.002699603968
0.01790564739
-0.004361776752
0.01076603412
-0.007339586907
0.002911801154
-0.01232802148
-0.01542820313
0.01072212315
0.01926108048
0.02539726103
0.03012626824
0.03384157274
0.03682588822
0.03925688903
0.04123121434
0.04279279124
0.04394943864
0.0446825222
0.04495471809
0.0446973746
0.04381156809
0.04215719243
0.03945758837
0.03509581158
0.02775622467
0.01542820314
)
;

boundaryField
{
    movingWall
    {
        type            calculated;
        value           uniform 0;
    }
    fixedWalls
    {
        type            calculated;
        value           uniform 0;
    }
    frontAndBack
    {
        type            empty;
    }
}


// ************************************************************************* //
