/*--------------------------------*- C++ -*----------------------------------*\
  =========                 |
  \\      /  F ield         | OpenFOAM: The Open Source CFD Toolbox
   \\    /   O peration     | Website:  https://openfoam.org
    \\  /    A nd           | Version:  13
     \\/     M anipulation  |
\*---------------------------------------------------------------------------*/
FoamFile
{
    format      ascii;
    class       vectorField;
    location    "16";
    object      U_all;
}
// * * * * * * * * * * * * * * * * * * * * * * * * * * * * * * * * * * * * * //


400
(
(0.0001349857507 -0.0001375913739 0)
(-0.0001938329295 6.310768053e-05 0)
(-0.001455964916 0.0002738086717 0)
(-0.003452983765 0.0004088450262 0)
(-0.005881260625 0.0004781672798 0)
(-0.008473242824 0.0004995812998 0)
(-0.01100883992 0.0004825067523 0)
(-0.01328889968 0.0004278826526 0)
(-0.01511562449 0.0003320495448 0)
(-0.0162906361 0.0001922420811 0)
(-0.01663323608 1.222018126e-05 0)
(-0.01601655137 -0.000193378511 0)
(-0.01441335212 -0.0003969960757 0)
(-0.01193812918 -0.0005607481931 0)
(-0.008868431027 -0.000644023481 0)
(-0.005628460524 -0.0006153581897 0)
(-0.002725487486 -0.0004648639858 0)
(-0.0006392437734 -0.0002130354435 0)
(0.0003362103506 7.465636026e-05 0)
(0.0002476017454 0.000242243658 0)
(-7.308819114e-05 0.0001907284931 0)
(-0.001853795621 0.001754348905 0)
(-0.005670704621 0.003339114161 0)
(-0.01102528525 0.004421721228 0)
(-0.01726872068 0.004975869219 0)
(-0.02381189185 0.005070329271 0)
(-0.03013086685 0.004758117911 0)
(-0.03573418164 0.004057107613 0)
(-0.04014202411 0.002968785351 0)
(-0.04289547284 0.001512136681 0)
(-0.04360139605 -0.0002412180594 0)
(-0.04200706964 -0.002141816916 0)
(-0.03808886913 -0.003956756988 0)
(-0.03212971277 -0.005392907263 0)
(-0.02475381777 -0.006152577784 0)
(-0.01688827041 -0.006015817896 0)
(-0.009630395378 -0.004930578713 0)
(-0.00402148656 -0.003087172627 0)
(-0.000747776798 -0.0009827254208 0)
(0.0001478637873 0.0003823702597 0)
(-0.000334115281 0.001579109224 0)
(-0.003873570817 0.005703748391 0)
(-0.01025847816 0.009346025325 0)
(-0.01864502844 0.01179000729 0)
(-0.02811245232 0.01299735413 0)
(-0.03786714702 0.01308542113 0)
(-0.04718873052 0.01215081171 0)
(-0.05539024288 0.01023571893 0)
(-0.06180421736 0.007366096001 0)
(-0.06580338655 0.003620164473 0)
(-0.06686009012 -0.0008016310461 0)
(-0.06463788005 -0.005528385513 0)
(-0.05909843505 -0.01001245103 0)
(-0.05059833789 -0.01358134102 0)
(-0.03994172634 -0.01555745984 0)
(-0.02834938945 -0.01543689203 0)
(-0.01730891881 -0.01309179537 0)
(-0.008296812117 -0.00893911522 0)
(-0.002420431233 -0.00403623858 0)
(-2.81629612e-05 -0.000271187584 0)
(-0.0005674939307 0.004035216366 0)
(-0.005795044511 0.01188608301 0)
(-0.01463182772 0.01814437127 0)
(-0.0258292111 0.022197993 0)
(-0.03819294362 0.02409993855 0)
(-0.05077505721 0.02404993357 0)
(-0.06273085975 0.02219767927 0)
(-0.07325227304 0.01861425735 0)
(-0.08154908287 0.01335820183 0)
(-0.08687057598 0.006582595831 0)
(-0.08856761692 -0.001357645796 0)
(-0.08619032008 -0.009831177402 0)
(-0.07960914941 -0.01791679744 0)
(-0.06913962773 -0.02447764151 0)
(-0.05563798991 -0.02834317955 0)
(-0.04051821689 -0.02859801479 0)
(-0.02563008188 -0.0249317027 0)
(-0.0129587874 -0.01794675922 0)
(-0.004195391306 -0.009299377926 0)
(-0.0001804018966 -0.001797598577 0)
(-0.0007687570783 0.007458870119 0)
(-0.007530297606 0.02012482548 0)
(-0.01862922398 0.0294913951 0)
(-0.03241751727 0.035328685 0)
(-0.047439271 0.03792149538 0)
(-0.06262642009 0.03761459112 0)
(-0.07706190067 0.03463134686 0)
(-0.0898722589 0.02907230051 0)
(-0.1001898843 0.02101965571 0)
(-0.1071620775 0.01068739043 0)
(-0.1100036321 -0.001430146521 0)
(-0.108092309 -0.01444841709 0)
(-0.1011042075 -0.02705583658 0)
(-0.08917972296 -0.03758740948 0)
(-0.07309280167 -0.04425034564 0)
(-0.05436423547 -0.04552606153 0)
(-0.03522348488 -0.04071178597 0)
(-0.01831769003 -0.03045197167 0)
(-0.006169074684 -0.01700074538 0)
(-0.0003221044087 -0.00422725297 0)
(-0.0009398577397 0.01173721695 0)
(-0.009056373133 0.03021401616 0)
(-0.02217746026 0.04315556098 0)
(-0.03830267646 0.05094836964 0)
(-0.05574664832 0.05425281414 0)
(-0.07335777294 0.05363550137 0)
(-0.0901921464 0.04942212932 0)
(-0.1053587771 0.04173944708 0)
(-0.1179514852 0.0306672674 0)
(-0.1270326517 0.01643641 0)
(-0.1316639302 -0.0003749193099 0)
(-0.1309898436 -0.01868169126 0)
(-0.1243830191 -0.03680497256 0)
(-0.1116573576 -0.05250712978 0)
(-0.09333527693 -0.06322181306 0)
(-0.07090852739 -0.06655415296 0)
(-0.04696279742 -0.06106206344 0)
(-0.02497014025 -0.04714798495 0)
(-0.008621730768 -0.02762138019 0)
(-0.00049223234 -0.007694448985 0)
(-0.001079017574 0.01675549694 0)
(-0.01034757186 0.04191843458 0)
(-0.02519658881 0.05886542352 0)
(-0.04334031115 0.06879466043 0)
(-0.0629071711 0.07287717927 0)
(-0.08270269765 0.07198219414 0)
(-0.1018014499 0.06657071689 0)
(-0.1193432407 0.05678981633 0)
(-0.1344275806 0.04267771338 0)
(-0.1460620302 0.02441300113 0)
(-0.1531591008 0.002565317129 0)
(-0.1545942679 -0.0216794836 0)
(-0.1493470975 -0.04634991199 0)
(-0.1367511574 -0.0686349028 0)
(-0.1168638417 -0.08505295496 0)
(-0.09091626053 -0.09199720497 0)
(-0.06170258216 -0.08677608694 0)
(-0.03360816475 -0.06904109325 0)
(-0.01191124022 -0.04197508503 0)
(-0.0007380383687 -0.01250728761 0)
(-0.001181748419 0.02238456196 0)
(-0.01136615069 0.05495651713 0)
(-0.02758141439 0.07627834466 0)
(-0.0473290464 0.08851624174 0)
(-0.06859536181 0.09347606978 0)
(-0.09018386064 0.09241150866 0)
(-0.111233408 0.08595655756 0)
(-0.1309676174 0.07427478307 0)
(-0.1485493808 0.05731907176 0)
(-0.1629879303 0.03513245136 0)
(-0.1730918629 0.008155952732 0)
(-0.1774849452 -0.02246876901 0)
(-0.1747176148 -0.05461880726 0)
(-0.1635204517 -0.0849911291 0)
(-0.1432484406 -0.1091191958 0)
(-0.1145287589 -0.1218491272 0)
(-0.08001516898 -0.1185752013 0)
(-0.04489237385 -0.09735419178 0)
(-0.01644329903 -0.06122349793 0)
(-0.001117964471 -0.01917479212 0)
(-0.00124451609 0.02847474502 0)
(-0.01207702161 0.06899069713 0)
(-0.02922467514 0.09496027358 0)
(-0.05004166063 0.1096303169 0)
(-0.07240851482 0.1155567046 0)
(-0.0951634017 0.1144625341 0)
(-0.117554354 0.1072009844 0)
(-0.1389465774 0.09395823047 0)
(-0.1586397385 0.07456633936 0)
(-0.1757338126 0.04885196293 0)
(-0.18903293 0.01699711162 0)
(-0.197002624 -0.02008014566 0)
(-0.1978186101 -0.06031913885 0)
(-0.1895684936 -0.100126635 0)
(-0.1707003587 -0.1341344152 0)
(-0.1408177432 -0.1554240647 0)
(-0.1018458325 -0.156744811 0)
(-0.05929213337 -0.1333044018 0)
(-0.02265574119 -0.08683418211 0)
(-0.001709842045 -0.02843102061 0)
(-0.001271017246 0.03486397141 0)
(-0.01247935265 0.08363673277 0)
(-0.03007147002 0.1143811118 0)
(-0.05129928407 0.1314941501 0)
(-0.07396077621 0.1383947155 0)
(-0.09696053012 0.1373680462 0)
(-0.1196991547 0.1295459832 0)
(-0.1417437432 0.1151617585 0)
(-0.1626156794 0.09391375639 0)
(-0.1816229605 0.06535480297 0)
(-0.1977174939 0.02929289465 0)
(-0.2093843111 -0.0137662182 0)
(-0.2145967049 -0.06209876562 0)
(-0.2108979158 -0.1121596191 0)
(-0.1957457495 -0.1579925728 0)
(-0.167326131 -0.1909737271 0)
(-0.1260604646 -0.2006174538 0)
(-0.07681968642 -0.1776847885 0)
(-0.0309762305 -0.120441823 0)
(-0.002621892384 -0.04126018859 0)
(-0.001281762407 0.04140826437 0)
(-0.01265479366 0.0985041808 0)
(-0.03020062935 0.1339363273 0)
(-0.05108077137 0.1532996998 0)
(-0.07302178485 0.1610027618 0)
(-0.09502902961 0.1599991937 0)
(-0.116702258 0.151774165 0)
(-0.1378711858 0.1366550651 0)
(-0.1583656089 0.1142271447 0)
(-0.1778296724 0.08375500183 0)
(-0.1955465911 0.04460297235 0)
(-0.2102663228 -0.003296116726 0)
(-0.2200480364 -0.05884845743 0)
(-0.2221642298 -0.1190089019 0)
(-0.2132188131 -0.1778112418 0)
(-0.1897724151 -0.2254173629 0)
(-0.149960197 -0.2479775047 0)
(-0.09661638579 -0.2302021233 0)
(-0.04170317398 -0.1635302434 0)
(-0.004004429721 -0.0589079874 0)
(-0.001328569409 0.0480458001 0)
(-0.01283464812 0.1132789467 0)
(-0.0299276251 0.1530014508 0)
(-0.04965104477 0.1740970963 0)
(-0.06967296979 0.1821352241 0)
(-0.08915836344 0.1808624031 0)
(-0.1079696246 0.1722008475 0)
(-0.1262614844 0.1566359212 0)
(-0.1442478888 0.1336936617 0)
(-0.1620203493 0.1023889969 0)
(-0.1793673481 0.06164229208 0)
(-0.1955651801 0.01072915735 0)
(-0.2091183365 -0.05012538939 0)
(-0.217470191 -0.1188660837 0)
(-0.2167925531 -0.19030921 0)
(-0.2021781111 -0.2544018132 0)
(-0.1689767782 -0.2946061994 0)
(-0.1164419236 -0.2886240071 0)
(-0.05474859572 -0.216823433 0)
(-0.006058859503 -0.08284132816 0)
(-0.001518201476 0.05491142804 0)
(-0.01349213803 0.1278548678 0)
(-0.02991945645 0.1710135609 0)
(-0.04767605595 0.1928375132 0)
(-0.06442531831 0.2003240872 0)
(-0.0796176298 0.1981525408 0)
(-0.09348302575 0.1887540602 0)
(-0.1065713808 0.1728305883 0)
(-0.1195346489 0.1499190033 0)
(-0.1329770812 0.1188677579 0)
(-0.1473025596 0.07823158145 0)
(-0.1625127391 0.02665911583 0)
(-0.1779034882 -0.03659865961 0)
(-0.1916219788 -0.1108628454 0)
(-0.2000999939 -0.1925798248 0)
(-0.1976132564 -0.2729073294 0)
(-0.1768355021 -0.3343166241 0)
(-0.1322671624 -0.3480036432 0)
(-0.06919795235 -0.2793111318 0)
(-0.009032621187 -0.1145758937 0)
(-0.002054262427 0.06252655868 0)
(-0.01546958897 0.1425110717 0)
(-0.03129673 0.1875489707 0)
(-0.0462544157 0.2083975168 0)
(-0.0581854202 0.2139121675 0)
(-0.06708671083 0.2098341872 0)
(-0.07373276693 0.1991198596 0)
(-0.07915381572 0.1827008665 0)
(-0.08446562796 0.160175877 0)
(-0.09078435696 0.1303244972 0)
(-0.09913775407 0.09147430782 0)
(-0.1103216592 0.04179866094 0)
(-0.1246351725 -0.02033127228 0)
(-0.1413992228 -0.09573375153 0)
(-0.1581406308 -0.183125566 0)
(-0.1694590314 -0.2764344707 0)
(-0.1663169072 -0.3597806851 0)
(-0.1382389976 -0.4004648253 0)
(-0.08271025064 -0.3470279633 0)
(-0.0131418115 -0.1552184059 0)
(-0.003295373109 0.07208583438 0)
(-0.02012702997 0.1581004773 0)
(-0.03562362847 0.2023126994 0)
(-0.0466671978 0.2194935074 0)
(-0.05179020774 0.2209999408 0)
(-0.05203181723 0.2136702729 0)
(-0.04898027519 0.2008691482 0)
(-0.04424306079 0.1836717343 0)
(-0.03939300584 0.161726688 0)
(-0.03598949672 0.1338134661 0)
(-0.03558546558 0.09818533987 0)
(-0.03968127335 0.05277719973 0)
(-0.04957271078 -0.004620968198 0)
(-0.0659793685 -0.07607459 0)
(-0.08822712445 -0.1627065205 0)
(-0.1126422968 -0.2624128335 0)
(-0.1303443314 -0.3640718776 0)
(-0.1270784108 -0.4359540411 0)
(-0.09087330259 -0.4121079748 0)
(-0.01824705633 -0.2046360128 0)
(-0.005739677344 0.08593777616 0)
(-0.02932530106 0.1761248973 0)
(-0.04435172625 0.2147576683 0)
(-0.04915566787 0.2242076082 0)
(-0.04426048564 0.219073301 0)
(-0.03260916049 0.2070022045 0)
(-0.01693351224 0.191392571 0)
(0.0005218957089 0.1732182292 0)
(0.01779570744 0.1520677637 0)
(0.03302636303 0.126729859 0)
(0.04432318178 0.09550369059 0)
(0.0496986377 0.05633267607 0)
(0.04708262718 0.006836905825 0)
(0.0344876807 -0.05571618839 0)
(0.01054822645 -0.1343043237 0)
(-0.02394215959 -0.2310398636 0)
(-0.06271234529 -0.3422380808 0)
(-0.09056663216 -0.4437425145 0)
(-0.08667710671 -0.4628790708 0)
(-0.02315980597 -0.2608698053 0)
(-0.009926280276 0.1091216423 0)
(-0.04449689454 0.1984095419 0)
(-0.0559761439 0.2226076059 0)
(-0.04829125178 0.2185185244 0)
(-0.02723097438 0.2039219437 0)
(0.001211868456 0.1860766249 0)
(0.0330869641 0.167570424 0)
(0.06571198219 0.1488172334 0)
(0.09700426907 0.1291285524 0)
(0.1250831512 0.1072550533 0)
(0.1480071502 0.08162300276 0)
(0.1636120165 0.05038670188 0)
(0.169410642 0.01137989751 0)
(0.1625744531 -0.03810371782 0)
(0.1400800297 -0.1017761276 0)
(0.09956002064 -0.1848426423 0)
(0.04244147732 -0.2920078983 0)
(-0.01953652831 -0.4136091646 0)
(-0.06038716937 -0.4844096467 0)
(-0.02502016709 -0.3200592792 0)
(-0.01762519509 0.1524977903 0)
(-0.06167339934 0.2239016971 0)
(-0.05393637605 0.216664014 0)
(-0.01790251674 0.1926993361 0)
(0.02968521369 0.1679801334 0)
(0.08062879033 0.1456809596 0)
(0.1311976986 0.126162808 0)
(0.1793057919 0.1087502665 0)
(0.2234908701 0.09228200533 0)
(0.2624119344 0.07545661703 0)
(0.2945224492 0.05692872813 0)
(0.3178895683 0.03522333419 0)
(0.3300411427 0.008689654747 0)
(0.3278734823 -0.02476856187 0)
(0.3074934467 -0.06834520094 0)
(0.264174216 -0.1279529883 0)
(0.1935554589 -0.2144636939 0)
(0.09816922123 -0.3367265614 0)
(0.001448755104 -0.4554176638 0)
(-0.01666887529 -0.3673254471 0)
(-0.02392310843 0.2089388398 0)
(-0.03738148102 0.231108701 0)
(0.03757803025 0.1766772124 0)
(0.124556538 0.1362544623 0)
(0.2040039277 0.1078494244 0)
(0.2745958924 0.08667230854 0)
(0.3371888927 0.07055711578 0)
(0.3923010749 0.05785879045 0)
(0.4401769926 0.04711993361 0)
(0.4806044901 0.03715884851 0)
(0.5130802295 0.02695724227 0)
(0.5364049274 0.01557077616 0)
(0.5485649495 0.00204039625 0)
(0.5467631758 -0.01478023428 0)
(0.5270192082 -0.03682703738 0)
(0.4836638088 -0.06804759622 0)
(0.4082518094 -0.1184630943 0)
(0.2887950463 -0.2091386048 0)
(0.131877345 -0.3382782768 0)
(0.0378510217 -0.3399272065 0)
(0.2420497452 0.109333349 0)
(0.3140818116 0.09740102082 0)
(0.4452464862 0.05706318548 0)
(0.5504333733 0.03503770668 0)
(0.6243301329 0.02354335523 0)
(0.6790162759 0.01644747718 0)
(0.7219096045 0.01171421474 0)
(0.7563357174 0.008477812307 0)
(0.7839997645 0.006137824818 0)
(0.8057778455 0.004253115924 0)
(0.8218741407 0.002488200801 0)
(0.8318873709 0.0006043731612 0)
(0.8348851994 -0.001587167029 0)
(0.8293583174 -0.00423802757 0)
(0.8128737581 -0.007673481076 0)
(0.7813539522 -0.01260435274 0)
(0.7262501754 -0.02111130216 0)
(0.6303826323 -0.03812996379 0)
(0.4594132229 -0.08599279087 0)
(0.3048324936 -0.1258055931 0)
)


// ************************************************************************* //
