/*--------------------------------*- C++ -*----------------------------------*\
  =========                 |
  \\      /  F ield         | OpenFOAM: The Open Source CFD Toolbox
   \\    /   O peration     | Website:  https://openfoam.org
    \\  /    A nd           | Version:  13
     \\/     M anipulation  |
\*---------------------------------------------------------------------------*/
FoamFile
{
    format      ascii;
    class       vectorField;
    location    "16";
    object      U_all;
}
// * * * * * * * * * * * * * * * * * * * * * * * * * * * * * * * * * * * * * //


400
(
(1.070671883e-05 -3.735541024e-05 0)
(-0.0006654296772 0.0004125510503 -1.543504016e-23)
(-0.002181427835 0.0009186226704 0)
(-0.004039679715 0.001309998575 0)
(-0.005959341919 0.001531710313 6.785571637e-25)
(-0.007746334995 0.00156640487 4.146196725e-24)
(-0.009265049602 0.001420494651 -7.160044925e-24)
(-0.01041456404 0.001117407578 7.760349595e-24)
(-0.01111491058 0.0006947687289 -2.115517775e-25)
(-0.01130610112 0.0002028391208 -4.026571237e-24)
(-0.01095304292 -0.0002994807607 5.840694853e-24)
(-0.01005708366 -0.0007460476017 -5.961622224e-23)
(-0.008668953773 -0.001073772297 -6.589719744e-23)
(-0.006896585205 -0.001231388516 -7.825772962e-23)
(-0.004908876786 -0.001191540494 4.602855478e-24)
(-0.002928903563 -0.0009616721078 -4.171922596e-24)
(-0.001209157436 -0.0005918742163 -2.024081711e-22)
(-2.325783987e-05 -0.0001712107802 0)
(0.0005151532784 0.0001704689313 1.63452368e-25)
(0.0002219828694 0.0003049134356 -4.198949524e-24)
(-0.0002627996904 0.0008279212501 1.380425274e-25)
(-0.002697102094 0.00337665003 1.553200347e-23)
(-0.006890641782 0.005591442717 1.543878729e-25)
(-0.01192311676 0.006991484182 -8.419525909e-25)
(-0.01709318326 0.007535858393 1.149811056e-24)
(-0.02192225329 0.00727740324 1.287890763e-23)
(-0.02604894528 0.006308182308 1.583684792e-24)
(-0.02919840291 0.004745046851 -7.506701654e-24)
(-0.03115780191 0.00273344577 1.02783958e-23)
(-0.03177523337 0.0004542849124 4.546770249e-24)
(-0.03096665702 -0.0018769935 -6.359377927e-24)
(-0.02874118628 -0.0040118843 2.940742319e-24)
(-0.0252305905 -0.005695008074 3.912993666e-23)
(-0.02070337091 -0.006693979546 -1.969987703e-24)
(-0.01557289991 -0.006842753105 3.787352916e-24)
(-0.01037846875 -0.006089863886 -9.86966972e-23)
(-0.005730669198 -0.004543322861 9.77247112e-23)
(-0.002237000115 -0.002509002113 -4.208842568e-25)
(-0.0001851259099 -0.0005067641824 4.314993253e-25)
(8.293948383e-05 0.0006064308672 0)
(-0.0004176091938 0.002928640808 -2.900943561e-25)
(-0.004635422628 0.008782460236 1.69419692e-23)
(-0.01134156543 0.01320702303 -8.252022279e-24)
(-0.01927608231 0.01575222278 -2.0478077e-25)
(-0.02740234655 0.01648922495 2.011761865e-25)
(-0.03502786659 0.01560752524 1.218914997e-26)
(-0.04160940018 0.0133309052 -1.409319759e-24)
(-0.0467226729 0.009901385256 -4.683148347e-25)
(-0.05003363599 0.005596387658 -1.076263113e-23)
(-0.05129846741 0.0007510708853 0)
(-0.05037203202 -0.004223750415 0)
(-0.04724414208 -0.008860147672 2.690245089e-23)
(-0.04208279685 -0.01264925736 2.833358159e-23)
(-0.03525624223 -0.01510234786 -1.662763577e-24)
(-0.0273502356 -0.01583145935 4.907233576e-23)
(-0.01914684491 -0.01465009306 9.544221873e-23)
(-0.01155057063 -0.01168010047 4.12488103e-23)
(-0.005463062693 -0.007447316318 4.645604589e-25)
(-0.001452066866 -0.002940068604 8.06638049e-26)
(-9.073571336e-05 0.0002207722184 0)
(-0.0005008456626 0.006030238036 -4.226524813e-23)
(-0.006384629089 0.01632820427 -1.684332504e-23)
(-0.01549191728 0.02349781538 8.178306597e-24)
(-0.02620757238 0.02737100972 0)
(-0.03718812836 0.02825049414 0)
(-0.04756653253 0.02652510204 0)
(-0.05665351044 0.02258265288 -5.202420712e-26)
(-0.06389794053 0.0168059835 -1.979992012e-24)
(-0.068849304 0.009612955162 0)
(-0.07114875723 0.001503133596 1.685908152e-24)
(-0.07055803269 -0.006905137531 2.835903067e-25)
(-0.06699491825 -0.014883196 -2.843843662e-25)
(-0.0605835638 -0.02161011716 0)
(-0.05171518405 -0.02625542411 4.193433065e-23)
(-0.04108186036 -0.02810380208 -4.741295709e-23)
(-0.02967470753 -0.02672720695 -2.838235854e-23)
(-0.01871178585 -0.02218404128 -4.112582863e-23)
(-0.009476972273 -0.0152048524 7.77570646e-25)
(-0.002974427635 -0.007297844482 9.592981868e-23)
(-0.000231572218 -0.0008711126335 0)
(-0.0005299084512 0.01006836753 4.247093138e-23)
(-0.007961211234 0.02588307168 4.786493641e-25)
(-0.01934381924 0.03633281519 -4.677178942e-25)
(-0.03273613888 0.0417476222 0)
(-0.04652547907 0.04278909928 7.730316611e-25)
(-0.05970104261 0.04010782174 -7.623136236e-25)
(-0.07145782599 0.03427579596 3.640116605e-23)
(-0.08113596926 0.02581218196 1.812378036e-23)
(-0.08816612734 0.01525886527 6.112555161e-24)
(-0.09205489167 0.003262780198 -1.687872328e-24)
(-0.0924121655 -0.009362580256 0)
(-0.08899943239 -0.02160587104 4.460004761e-25)
(-0.08180545333 -0.03228213415 1.043892103e-23)
(-0.07114098328 -0.04011984896 -4.41356304e-23)
(-0.05772142928 -0.04393055241 1.977179007e-24)
(-0.0427163574 -0.04287097201 4.374533584e-23)
(-0.02771175329 -0.03677665276 -4.099708082e-25)
(-0.01452937149 -0.02649482504 0)
(-0.004852844923 -0.01407452625 5.417910937e-23)
(-0.0003634258609 -0.002849442263 -2.541254105e-22)
(-0.0005257103526 0.01495916617 9.833367531e-23)
(-0.009353262633 0.03729087331 -4.907400293e-25)
(-0.02282304046 0.0515675885 0)
(-0.03873310595 0.05879331543 0)
(-0.05525159233 0.06011123133 -8.702566714e-23)
(-0.07126021214 0.05649271178 -8.461060806e-23)
(-0.08587067234 0.04870429358 -4.031935556e-23)
(-0.09833531766 0.03737860965 -1.484395122e-23)
(-0.107967711 0.02313880209 -5.256372782e-24)
(-0.114115084 0.006729452466 -8.079064238e-24)
(-0.1161812442 -0.01087485388 6.492680247e-24)
(-0.1136844828 -0.02839880461 8.616926642e-24)
(-0.1063609088 -0.04425579674 -1.881970534e-23)
(-0.09430789517 -0.05662569443 3.705105986e-24)
(-0.07814053124 -0.06365515631 0)
(-0.05913511357 -0.06382020527 -1.658804077e-23)
(-0.03927918745 -0.05644823267 4.682714534e-27)
(-0.02110992914 -0.04230044406 0)
(-0.007307722154 -0.02395718218 -1.498833481e-22)
(-0.0005204932835 -0.005923534648 6.005914769e-22)
(-0.0004980025073 0.0205914978 -9.766338134e-23)
(-0.01050502054 0.05032368387 2.826706637e-22)
(-0.0257704509 0.06895064936 1.523707888e-22)
(-0.04392281581 0.07830204099 3.608964086e-24)
(-0.06296999621 0.08011048753 -7.299716871e-23)
(-0.08173166218 0.07571969773 9.002710083e-23)
(-0.09927626597 0.06609243641 -3.573471863e-24)
(-0.1147997094 0.05193728627 -1.717144169e-24)
(-0.1275152585 0.03389337325 2.50545125e-24)
(-0.1366052887 0.0127225172 7.293315925e-24)
(-0.141232115 -0.01051980491 -6.397807237e-24)
(-0.1405970336 -0.03435047169 -9.556937176e-24)
(-0.1340656939 -0.05678544023 -3.25108415e-23)
(-0.1213621495 -0.07537069335 -3.506034659e-23)
(-0.1028164872 -0.08737485626 5.32657143e-25)
(-0.07964923767 -0.09023555952 0)
(-0.05418993471 -0.08231587541 0)
(-0.02982935861 -0.06388770373 -2.86845553e-24)
(-0.01064750369 -0.03794229231 2.932070548e-24)
(-0.0007336247046 -0.01049203226 1.02517622e-22)
(-0.000447468047 0.02680496481 0)
(-0.0113276584 0.06464737002 1.997430254e-22)
(-0.02796266914 0.08808412616 8.941689022e-23)
(-0.04790844267 0.09989324228 0)
(-0.06907921787 0.1024857219 1.565066576e-22)
(-0.09028353315 0.09762225886 0)
(-0.1105949378 0.08646037126 -1.422751013e-22)
(-0.1291996719 0.06974123995 6.485546933e-24)
(-0.1452530976 0.04804157109 0)
(-0.1578040145 0.02203542687 0)
(-0.1657823818 -0.007260526026 -1.363724861e-24)
(-0.1680434788 -0.03826432562 -9.208810915e-25)
(-0.1634969842 -0.06867491209 1.477753035e-22)
(-0.1513325623 -0.09538979098 -4.690142988e-23)
(-0.1313530951 -0.1146247112 -2.519711323e-24)
(-0.1044332035 -0.1223718003 1.496000923e-24)
(-0.07300497278 -0.1153800721 -1.519599289e-24)
(-0.04129940797 -0.09270444283 0)
(-0.01523287781 -0.05733664398 3.180929679e-24)
(-0.001042501812 -0.01712912991 -1.006801674e-21)
(-0.0003747986783 0.03338463619 0)
(-0.01173413832 0.07980445409 -1.126105145e-22)
(-0.02916578754 0.1083953809 -6.177967553e-22)
(-0.05024575233 0.1229594182 -3.746514891e-22)
(-0.07286062584 0.1266557008 0)
(-0.09585872372 0.1217040972 4.106845992e-22)
(-0.1183726361 0.109461823 1.255943303e-22)
(-0.1396416282 0.0906680049 -5.557778954e-24)
(-0.1588367016 0.06576328474 5.530270981e-24)
(-0.1749539239 0.03522291824 0)
(-0.1867622793 -0.0001206405201 2.898906934e-23)
(-0.1928269282 -0.03876531219 4.666861146e-24)
(-0.1915989163 -0.07825954486 -1.06846977e-22)
(-0.1816187057 -0.1149720628 7.92675113e-23)
(-0.1619075254 -0.1440257344 -2.401219465e-22)
(-0.1325825296 -0.1596202238 0)
(-0.09568742474 -0.1560992134 0)
(-0.05596073245 -0.1301327443 0)
(-0.02145593638 -0.08371159766 0)
(-0.001498249876 -0.02662591504 5.540464313e-22)
(-0.000288573431 0.04007542901 0)
(-0.01168568443 0.0952347846 -3.485816268e-22)
(-0.02922068604 0.1291413858 8.914268476e-22)
(-0.05056529883 0.1466417627 3.60869136e-22)
(-0.0736351543 0.1516978574 0)
(-0.09736600787 0.1470345962 -3.850776926e-22)
(-0.1210051535 0.1342308055 -3.164155267e-23)
(-0.1439186961 0.1140141587 3.322411448e-22)
(-0.1653929878 0.08664291477 1.763520096e-22)
(-0.1844997475 0.05230229374 -4.046193657e-23)
(-0.2000064818 0.01149293575 1.65370954e-23)
(-0.2103369896 -0.03458016697 -8.228107725e-24)
(-0.2135977176 -0.08358183896 3.358581778e-22)
(-0.2077020925 -0.1316526626 0)
(-0.1907111139 -0.1730266872 2.402379504e-22)
(-0.1615328939 -0.2000018015 5.719414325e-24)
(-0.1210851982 -0.2037690823 -5.80470795e-24)
(-0.07379604162 -0.1770118565 1.531069818e-22)
(-0.02969376176 -0.1187351974 -5.384198264e-24)
(-0.002177129982 -0.04001201055 0)
(-0.0002137257993 0.0466291859 0)
(-0.01125172292 0.1103421795 0)
(-0.0281542058 0.1494595351 -5.012531047e-22)
(-0.04873501485 0.1698519633 -1.877116847e-23)
(-0.0709817773 0.1763376641 2.033308514e-23)
(-0.09396680802 0.1722027281 -2.00930085e-23)
(-0.117109453 0.1592931288 -2.310121403e-23)
(-0.1399807782 0.1383527833 -3.020028422e-22)
(-0.1620953494 0.1094584352 6.689357108e-23)
(-0.182759746 0.0724630197 4.497490328e-23)
(-0.2009489143 0.02742412612 -4.561350345e-23)
(-0.2151924557 -0.02495590227 0)
(-0.2235189495 -0.08280517174 -7.783712324e-23)
(-0.2234202441 -0.142509017 0)
(-0.2120178656 -0.1979368643 -3.726146073e-22)
(-0.1866881695 -0.2398165533 5.221475385e-22)
(-0.1463897834 -0.2558204113 0)
(-0.09390298491 -0.2328971056 -1.477131649e-22)
(-0.04019751913 -0.1638068374 1.920152099e-22)
(-0.003198533885 -0.05855559166 -3.394212418e-22)
(-0.00020424472 0.05289246943 0)
(-0.01068456014 0.1246150184 9.167052689e-22)
(-0.02630600259 0.1684706055 -2.43623339e-23)
(-0.04503924056 0.191348494 9.176656366e-22)
(-0.06497861347 0.1990067123 -2.507005781e-23)
(-0.08540284783 0.1953642744 2.832109532e-23)
(-0.1059718398 0.1826001478 -2.806257035e-23)
(-0.126539812 0.1615373877 -1.656653217e-23)
(-0.1469542127 0.1321253405 -5.246862628e-22)
(-0.1669071636 0.09391233707 -8.883619379e-24)
(-0.1857962268 0.04648090479 9.635710101e-24)
(-0.2025448844 -0.01011310846 3.305963513e-22)
(-0.2154767589 -0.0748329716 -5.806342186e-22)
(-0.2220694174 -0.1448337186 0)
(-0.2188327802 -0.2144528624 8.861624803e-22)
(-0.2016335178 -0.2737598 -4.918821646e-22)
(-0.1668526916 -0.3073332334 -1.56521872e-23)
(-0.1140013512 -0.2951519669 0)
(-0.05286834239 -0.2194096604 -1.873079236e-22)
(-0.004746744207 -0.08370623388 3.343571285e-22)
(-0.0003674130535 0.0589493228 1.548396363e-23)
(-0.01051742216 0.1378033023 -8.749105029e-22)
(-0.02445845508 0.1854272413 -1.155304666e-21)
(-0.04033297121 0.2098591022 -8.613337552e-22)
(-0.05639136761 0.217965994 0)
(-0.07224874852 0.2143887496 3.506655735e-23)
(-0.08790704943 0.2017061781 -7.279711985e-23)
(-0.1035848546 0.1808944359 5.855419766e-23)
(-0.1195394813 0.1518616033 3.014296319e-22)
(-0.1359444224 0.1139397211 -1.125820225e-23)
(-0.1527658937 0.06629187201 0)
(-0.1696100013 0.008295818863 -3.596079467e-22)
(-0.1854264546 -0.06001094795 7.501959574e-22)
(-0.198179093 -0.1371040097 8.817830287e-22)
(-0.2044632214 -0.2187379464 -5.283626655e-22)
(-0.1991732388 -0.295767152 5.152182268e-22)
(-0.176100613 -0.35119118 1.072321803e-23)
(-0.1300992084 -0.3582030399 -1.089541958e-23)
(-0.06688254565 -0.2841559833 -8.362435828e-23)
(-0.007081485603 -0.1169224564 0)
(-0.0009130863006 0.06534115123 -1.908675413e-23)
(-0.01170579162 0.1501251514 -1.325237179e-21)
(-0.02395335311 0.1998450859 1.092586697e-21)
(-0.03611230602 0.2241738199 6.725958449e-22)
(-0.04670280411 0.2314188652 6.006189363e-22)
(-0.05592655971 0.2270349901 6.633870371e-22)
(-0.06429051501 0.2140270783 -4.450766234e-23)
(-0.0724716059 0.1935626328 -3.455755581e-22)
(-0.081179609 0.1655795921 2.148726018e-22)
(-0.09109088669 0.129304835 0)
(-0.1027777101 0.08361106715 0)
(-0.1165830212 0.02731307572 2.652102878e-22)
(-0.1323705429 -0.04048741702 8.205280712e-23)
(-0.1491192568 -0.1198700751 -2.814595237e-22)
(-0.1642953154 -0.2087809399 -5.404161448e-23)
(-0.1729179314 -0.3005422693 1.30393331e-22)
(-0.16711811 -0.3791646137 -3.392888426e-22)
(-0.1365722515 -0.4134710916 -1.656950066e-23)
(-0.08019169093 -0.3536779473 8.351007431e-23)
(-0.0105070854 -0.1593382068 -6.041560039e-22)
(-0.002264010196 0.07344798913 0)
(-0.01583887369 0.1625327713 2.143266351e-21)
(-0.02672920118 0.2116130545 0)
(-0.03434690042 0.2331897012 -1.350207379e-21)
(-0.03775812743 0.2375753452 6.1945538e-23)
(-0.03819513904 0.2310834701 -6.183650962e-22)
(-0.03690670809 0.217064722 -4.749749031e-22)
(-0.03513289813 0.1968262874 8.288899609e-22)
(-0.03404242035 0.170323014 -1.882653027e-22)
(-0.03475658949 0.1367612134 0)
(-0.03837125573 0.09487519505 0)
(-0.04589742781 0.04314712849 2.416128372e-23)
(-0.05814268215 -0.02002098379 -6.000621418e-22)
(-0.07536214402 -0.09608874767 -4.304935773e-22)
(-0.09664257212 -0.18544167 4.634937546e-22)
(-0.1185033644 -0.2852451057 -6.480392853e-22)
(-0.133387678 -0.3837218943 9.084019643e-23)
(-0.1266035838 -0.4503125061 3.003348461e-23)
(-0.08901519093 -0.4197321134 5.663265876e-22)
(-0.01527051736 -0.2111045811 6.030175056e-22)
(-0.005183918494 0.08595989021 0)
(-0.0252917028 0.1765518002 1.466434746e-22)
(-0.03491767874 0.2204693765 -4.912584328e-23)
(-0.03653418658 0.2353314569 7.634880321e-22)
(-0.03036549532 0.2341843919 -6.997423584e-22)
(-0.01938548073 0.2240248514 4.740883953e-23)
(-0.005860316083 0.2082538926 -1.018266903e-22)
(0.008307471629 0.1880710739 -3.385198514e-22)
(0.02152773825 0.1633847999 2.060468767e-22)
(0.03236002741 0.1333600237 0)
(0.03932694194 0.09670929856 0)
(0.04092825644 0.05182946297 -2.899918001e-22)
(0.03556043007 -0.003159203083 0)
(0.02177770606 -0.07048915693 -5.509725324e-22)
(-0.001445125536 -0.1524881039 -1.477720111e-23)
(-0.03325641485 -0.2505191375 2.558182626e-23)
(-0.06921359482 -0.3598610125 2.199344154e-22)
(-0.09235764609 -0.4574712503 4.800682603e-24)
(-0.08721316204 -0.4697331381 -5.792531476e-22)
(-0.02103464664 -0.2698451458 0)
(-0.01111791603 0.1085956158 0)
(-0.04251862078 0.1946786498 -8.841227006e-22)
(-0.04802854307 0.2257439178 -5.408124435e-22)
(-0.03931749021 0.2281112614 4.541357481e-22)
(-0.0189472528 0.2181233003 -1.713352131e-24)
(0.00745575365 0.2027231389 -4.55744549e-23)
(0.03644381964 0.1846881824 5.69066166e-22)
(0.06557770667 0.1646687014 -2.763912237e-23)
(0.09301396068 0.1423052472 -2.067378133e-22)
(0.1171382024 0.1166525714 3.139210339e-23)
(0.1363094756 0.08646254797 -3.423098364e-23)
(0.1487496793 0.05024465936 -3.68831275e-23)
(0.1523340719 0.006233965417 3.204026545e-22)
(0.1447682969 -0.04788949055 6.116971572e-22)
(0.123370696 -0.1152438945 -5.099537528e-22)
(0.08621561892 -0.2003713777 -1.616437575e-22)
(0.03188611409 -0.3067434367 1.530169049e-22)
(-0.02369614588 -0.4239462765 7.29351494e-23)
(-0.06495452448 -0.4871187204 1.913128274e-21)
(-0.0251039046 -0.3291211838 2.954806893e-21)
(-0.02004572204 0.1460826489 -4.388406148e-23)
(-0.06417769258 0.2112893389 4.415567724e-23)
(-0.05074602145 0.217696928 9.997760161e-22)
(-0.01942281317 0.201412368 -8.176977208e-24)
(0.0240221606 0.1808414327 0)
(0.071381274 0.1606293211 4.36052301e-23)
(0.1188820362 0.1415984981 -2.271843351e-22)
(0.1642705737 0.123286145 -9.019399419e-23)
(0.2060122502 0.1048024072 3.677069631e-23)
(0.2427559513 0.08508397566 -1.700021949e-23)
(0.273026054 0.06299214614 3.427148341e-23)
(0.2950800328 0.03730570028 -6.588460841e-23)
(0.3065460144 0.006583004754 -9.298223806e-23)
(0.304846455 -0.03083155691 1.516669734e-22)
(0.2862900142 -0.07782463862 0)
(0.2469742883 -0.1399036161 1.506119901e-22)
(0.1810254034 -0.2266180292 2.55961167e-22)
(0.09599457621 -0.3443747226 0)
(-0.006723127628 -0.4552053012 -3.675315194e-21)
(-0.01922826034 -0.377739205 -2.892439298e-21)
(-0.02591645097 0.2276933026 -9.513194952e-22)
(-0.03997838843 0.2238288348 -1.388642465e-22)
(0.03655593217 0.181052187 -2.334586172e-22)
(0.1090229072 0.1450860678 -1.193086413e-22)
(0.1816628144 0.1172159504 -4.294825331e-23)
(0.2489220586 0.09624879395 9.77779808e-23)
(0.3099199333 0.07999927047 -1.407509223e-22)
(0.3644879056 0.0665508442 1.295983394e-22)
(0.4124821932 0.05448541631 -8.611617947e-23)
(0.4534819384 0.04271361053 1.131869115e-25)
(0.486653625 0.030336924 1.526629866e-23)
(0.5106265831 0.01654921135 7.992088535e-23)
(0.5235619609 0.0005579723518 -1.810315141e-22)
(0.5231053342 -0.01861286388 -1.616768476e-22)
(0.505177637 -0.04284794928 -4.262633061e-23)
(0.4658330272 -0.07632174733 0)
(0.3952417772 -0.1286056485 -1.845556424e-22)
(0.2915861046 -0.2208458644 8.147763134e-22)
(0.1197327926 -0.3525008246 1.631449226e-21)
(0.02670225514 -0.3775479023 2.17257655e-21)
(0.2142926356 0.1347478543 9.863874619e-22)
(0.2776410544 0.09870905586 0)
(0.4316703094 0.0581060325 -2.593786015e-22)
(0.5304795302 0.03846200933 -1.741364835e-22)
(0.6016881666 0.0262316537 0)
(0.6570954204 0.01831602073 -6.00608066e-23)
(0.7014817272 0.01313326092 6.37293741e-23)
(0.737553261 0.009540622417 -1.798274303e-23)
(0.7668799336 0.006804666867 2.882996764e-23)
(0.7901538977 0.004466648586 2.312749817e-23)
(0.8074043674 0.002224573768 0)
(0.8182206465 -0.0001459888129 -2.871064962e-23)
(0.8216204516 -0.002719545923 0)
(0.8162223164 -0.005709432037 2.737227523e-23)
(0.7991260547 -0.009609480636 1.422308471e-23)
(0.7679979267 -0.0150020421 -5.79825405e-23)
(0.7106573794 -0.02502604703 -2.53510595e-22)
(0.6235195508 -0.04204384612 -6.917318316e-22)
(0.4230089807 -0.09183070973 0)
(0.2705671618 -0.1524026504 -2.11940632e-21)
)


// ************************************************************************* //
