/*--------------------------------*- C++ -*----------------------------------*\
  =========                 |
  \\      /  F ield         | OpenFOAM: The Open Source CFD Toolbox
   \\    /   O peration     | Website:  https://openfoam.org
    \\  /    A nd           | Version:  13
     \\/     M anipulation  |
\*---------------------------------------------------------------------------*/
FoamFile
{
    format      ascii;
    class       vectorField;
    location    "22.58";
    object      U_all;
}
// * * * * * * * * * * * * * * * * * * * * * * * * * * * * * * * * * * * * * //


400
(
(1.082700493e-05 -3.791593056e-05 0)
(-0.0006662284564 0.0004129911791 -1.540522391e-23)
(-0.002185189563 0.0009202829821 0)
(-0.00404736615 0.001312609426 0)
(-0.005971119935 0.001534860956 6.826809756e-25)
(-0.007761787254 0.001569637805 4.153612351e-24)
(-0.009283358853 0.001423375836 -7.31524506e-24)
(-0.01043463829 0.001119581218 7.590976103e-24)
(-0.0111354787 0.0006960020705 -2.100163785e-25)
(-0.01132583034 0.0002030634782 -4.001933503e-24)
(-0.01097063046 -0.0003001865712 5.811606432e-24)
(-0.01007139798 -0.0007474257094 -5.936182445e-23)
(-0.008679213105 -0.001075452854 -6.559631986e-23)
(-0.006902469975 -0.001232943255 -7.791687575e-23)
(-0.004910623913 -0.001192571728 4.578324293e-24)
(-0.00292733348 -0.0009619055355 -4.142988748e-24)
(-0.001205534426 -0.0005912522673 -2.00222874e-22)
(-1.932426864e-05 -0.000169963966 0)
(0.0005179705836 0.0001719871259 1.525164542e-25)
(0.0002227042976 0.0003059140972 -2.755875948e-24)
(-0.0002634080267 0.0008287467061 1.391095379e-25)
(-0.002703019269 0.00338333141 1.550135333e-23)
(-0.006906323767 0.005603660213 1.538588574e-25)
(-0.01195058207 0.007007161838 -8.459937324e-25)
(-0.01713251926 0.007552669305 1.156827067e-24)
(-0.02197213253 0.007293167973 1.300860172e-23)
(-0.02610699956 0.006321053832 1.448342877e-24)
(-0.02926154961 0.004753632638 -7.341111337e-24)
(-0.03122252683 0.002736924063 1.018293167e-23)
(-0.03183793665 0.0004525197053 4.518411102e-24)
(-0.0310238961 -0.001883707668 -6.327569975e-24)
(-0.02878999603 -0.004022348005 2.960299975e-24)
(-0.02526889601 -0.005707538613 3.899088414e-23)
(-0.02073020633 -0.00670658897 -1.957201075e-24)
(-0.01558860665 -0.006853444904 3.759525469e-24)
(-0.01038472786 -0.00609700073 -9.758980431e-23)
(-0.005730296805 -0.004546012311 9.656005512e-23)
(-0.002233589065 -0.00250751602 -3.992212806e-25)
(-0.0001819800446 -0.0005026402009 4.092896819e-25)
(8.340486707e-05 0.0006097128839 0)
(-0.0004187697806 0.002934629083 -2.918049797e-25)
(-0.004647170548 0.008802640928 1.712333731e-23)
(-0.0113701573 0.01323833441 -8.180109682e-24)
(-0.01932420936 0.015789573 -2.058210527e-25)
(-0.02746976942 0.01652748621 2.021976552e-25)
(-0.03511232347 0.0156421495 8.644720528e-27)
(-0.04170711427 0.01335819308 -1.278940846e-24)
(-0.04682882942 0.00991864454 -4.589203857e-25)
(-0.0501428027 0.005602062227 -1.066263197e-23)
(-0.05140537665 0.0007448259171 0)
(-0.05047147406 -0.004240680501 0)
(-0.04733139646 -0.008885536881 2.674603144e-23)
(-0.04215461581 -0.01267978491 2.816558056e-23)
(-0.03531083038 -0.01513399426 -1.648673416e-24)
(-0.0273875412 -0.01586003745 4.854610417e-23)
(-0.01916864441 -0.01467192225 9.436748416e-23)
(-0.01156027799 -0.0116927791 3.994661622e-23)
(-0.005465269484 -0.007450533132 4.204522195e-25)
(-0.001451158905 -0.002936288163 1.041133947e-25)
(-9.072787275e-05 0.0002255660323 0)
(-0.0005023751376 0.00604439144 -4.257931796e-23)
(-0.006401666505 0.01636810534 -1.702535911e-23)
(-0.01553243092 0.02355552696 8.106990929e-24)
(-0.02627478987 0.02743727076 0)
(-0.03728143499 0.02831668287 0)
(-0.04768284071 0.02658387967 0)
(-0.05678791496 0.02262822578 -4.660582696e-26)
(-0.06404434182 0.01683424769 -2.102021271e-24)
(-0.06900097176 0.009621617354 0)
(-0.07129855618 0.001491786808 1.644417294e-24)
(-0.07069936255 -0.006934590212 2.808484054e-25)
(-0.06712213723 -0.01492732146 -2.816347749e-25)
(-0.0606920175 -0.02166379423 0)
(-0.05180187941 -0.02631235863 4.141737935e-23)
(-0.04114576997 -0.02815723696 -4.690073306e-23)
(-0.02971696107 -0.02677088408 -2.77167007e-23)
(-0.01873562097 -0.02221339692 -3.98011696e-23)
(-0.009487355477 -0.01521834394 7.794689628e-25)
(-0.002976731042 -0.007298171965 9.768011318e-23)
(-0.0002318611348 -0.0008664689904 0)
(-0.0005315132654 0.01009336547 4.278649752e-23)
(-0.007982243738 0.02594793089 4.769135797e-25)
(-0.0193936616 0.03642291685 -4.660209681e-25)
(-0.03281850122 0.04184859447 0)
(-0.04663950785 0.04288836115 7.764139922e-25)
(-0.05984309124 0.04019504319 -7.656487514e-25)
(-0.07162225204 0.03434302902 3.665633303e-23)
(-0.08131584542 0.02585391841 1.841177723e-23)
(-0.08835383407 0.01527211755 6.218538196e-24)
(-0.09224252315 0.003247159946 -1.646333062e-24)
(-0.09259212347 -0.009405072127 0)
(-0.08916482568 -0.02167057676 4.383489993e-25)
(-0.08195039043 -0.03236224688 1.013598335e-23)
(-0.071261065 -0.04020685081 -4.358323916e-23)
(-0.05781417249 -0.04401498019 1.938635833e-24)
(-0.04278159824 -0.04294357801 4.236712483e-23)
(-0.02775189983 -0.03683000371 -3.873152665e-25)
(-0.01454932924 -0.02652523364 0)
(-0.00485905962 -0.01408393262 5.435484111e-23)
(-0.0003641043999 -0.002847104424 -2.562586005e-22)
(-0.0005271303717 0.01499681213 9.830352412e-23)
(-0.009376429512 0.03738412047 -4.899485881e-25)
(-0.0228782569 0.05169396548 0)
(-0.03882451808 0.05893272274 0)
(-0.0553783565 0.06024689072 -8.725372127e-23)
(-0.07141850824 0.05661127755 -8.492025532e-23)
(-0.08605461753 0.04879572856 -4.06022095e-23)
(-0.09853773669 0.03743606266 -1.500830361e-23)
(-0.1081807206 0.0231585525 -5.350891884e-24)
(-0.114330506 0.006710884428 -8.163188074e-24)
(-0.1163910202 -0.01092937971 6.588187517e-24)
(-0.113880999 -0.02848392211 8.802351143e-24)
(-0.106537264 -0.04436347038 -1.891688663e-23)
(-0.09445828952 -0.05674555502 4.504330165e-24)
(-0.07826077291 -0.06377519309 0)
(-0.05922324049 -0.06392795823 -1.583203963e-23)
(-0.03933612732 -0.0565326796 -2.095440898e-26)
(-0.02113994238 -0.04235457574 0)
(-0.007318034328 -0.02398076208 -1.518279498e-22)
(-0.0005215481605 -0.00592542177 6.051116513e-22)
(-0.0004990169632 0.0206424222 -9.763407534e-23)
(-0.01052802175 0.05044637285 2.830605357e-22)
(-0.0258259798 0.06911442827 1.526153098e-22)
(-0.04401538838 0.07848091124 3.617084356e-24)
(-0.06309903355 0.08028348661 -7.317997832e-23)
(-0.08189356215 0.07587059918 9.036001554e-23)
(-0.09946538351 0.06620929963 -3.587681855e-24)
(-0.115009166 0.05201208459 -1.727684809e-24)
(-0.1277375167 0.03392174021 2.521897999e-24)
(-0.1368325356 0.01270356302 7.371592465e-24)
(-0.1414565123 -0.01058367515 -6.488627508e-24)
(-0.1408109564 -0.03445355075 -9.761336556e-24)
(-0.1342618836 -0.05691904394 -3.261305709e-23)
(-0.1215338941 -0.07552325934 -3.644461067e-23)
(-0.1029580888 -0.08753238151 5.611229134e-25)
(-0.07975673212 -0.09038255591 0)
(-0.05426214463 -0.08243725871 0)
(-0.02986903769 -0.06397190286 -2.902174088e-24)
(-0.01066191734 -0.03798516376 2.966537058e-24)
(-0.0007350043387 -0.01050035419 1.027708152e-22)
(-0.0004478895913 0.0268683793 0)
(-0.0113479213 0.06479777243 2.001693366e-22)
(-0.02801275515 0.08828319828 8.960971563e-23)
(-0.04799309381 0.1001094108 0)
(-0.06919831024 0.102694087 1.56909621e-22)
(-0.09043399146 0.09780396186 0)
(-0.1107717233 0.08660183141 -1.42778823e-22)
(-0.1293966261 0.06983350806 6.51223164e-24)
(-0.1454635402 0.04807983797 0)
(-0.1580211261 0.02201864732 0)
(-0.1659993019 -0.007329932326 -1.373387323e-24)
(-0.1682535539 -0.03838083451 -9.306466257e-25)
(-0.1636937295 -0.06882971272 1.490625738e-22)
(-0.151509422 -0.09557099957 -4.703895907e-23)
(-0.1315037003 -0.1148173659 -2.556933048e-24)
(-0.1045519171 -0.1225582441 1.530826642e-24)
(-0.07308811241 -0.1155413332 -1.554974351e-24)
(-0.04134712334 -0.09282343446 0)
(-0.01525112077 -0.05740334768 3.201603466e-24)
(-0.001044199189 -0.01714604666 -1.012332646e-21)
(-0.0003744870633 0.03345825275 0)
(-0.01174909423 0.07997789416 -1.127633673e-22)
(-0.02920457222 0.1086241965 -6.189321418e-22)
(-0.05031309632 0.1232072666 -3.754267352e-22)
(-0.07295694669 0.1268941875 0)
(-0.09598165376 0.1219120433 4.118183254e-22)
(-0.118517953 0.109624307 1.260394865e-22)
(-0.1398041355 0.09077548109 -5.579618101e-24)
(-0.1590108931 0.0658108476 5.552001992e-24)
(-0.1751344295 0.03520967441 0)
(-0.1869442327 -0.0001921067348 2.911026488e-23)
(-0.1930057026 -0.03888948555 4.693326884e-24)
(-0.1917699284 -0.07842795961 -1.076053116e-22)
(-0.1817771884 -0.1151734733 7.997074002e-23)
(-0.1620479539 -0.1442456805 -2.418129402e-22)
(-0.1326986799 -0.1598405708 0)
(-0.09577331911 -0.1562983704 0)
(-0.05601294856 -0.1302880348 0)
(-0.02147721309 -0.08380527393 0)
(-0.001500254785 -0.02665338087 5.569148703e-22)
(-0.0002874623477 0.04015556468 0)
(-0.0116931184 0.09542381608 -3.492073497e-22)
(-0.02924294926 0.1293911154 8.930648069e-22)
(-0.05060679837 0.1469123192 3.616174049e-22)
(-0.07369684892 0.1519579574 0)
(-0.09744633177 0.1472610805 -3.861362205e-22)
(-0.1211008148 0.1344077088 -3.173500737e-23)
(-0.1440255854 0.1141317059 3.332205052e-22)
(-0.1655069725 0.08669658882 1.768988426e-22)
(-0.1846172718 0.05229191367 -4.059040114e-23)
(-0.2001249386 0.01142178097 1.656631901e-23)
(-0.2104546501 -0.03470607386 -8.262238445e-24)
(-0.2137133835 -0.08375444257 3.370801973e-22)
(-0.2078142994 -0.131862057 0)
(-0.1908170068 -0.1732604558 2.419297645e-22)
(-0.1616274562 -0.2002436567 5.769859108e-24)
(-0.1211613408 -0.203997367 -5.855904796e-24)
(-0.07384662302 -0.1771998064 1.546862563e-22)
(-0.02971640195 -0.1188563733 -5.43070985e-24)
(-0.002179398248 -0.04005143042 0)
(-0.00021184238 0.04671107692 0)
(-0.01125011975 0.110537136 0)
(-0.02815613128 0.1497186524 -5.021639179e-22)
(-0.04874421548 0.1701334618 -1.880604333e-23)
(-0.07099972859 0.1766081405 2.037914463e-23)
(-0.09399285834 0.1724374116 -2.013852439e-23)
(-0.1171413962 0.1594752788 -2.316319562e-23)
(-0.1400157249 0.138472731 -3.029000719e-22)
(-0.1621306424 0.1095125671 6.698050015e-23)
(-0.1827937407 0.07245255473 4.511922872e-23)
(-0.2009814829 0.02735384983 -4.576424104e-23)
(-0.2152249545 -0.0250789946 0)
(-0.2235539807 -0.08297265552 -7.83507113e-23)
(-0.2234606269 -0.1427125402 0)
(-0.212064913 -0.1981671598 -3.738486206e-22)
(-0.1867401026 -0.2400614911 5.243015353e-22)
(-0.1464405488 -0.256061698 0)
(-0.09394308295 -0.2331073202 -1.492456429e-22)
(-0.04021864237 -0.1639519557 1.935962005e-22)
(-0.003200944206 -0.05860727944 -3.409948028e-22)
(-0.0002017058325 0.05297076462 0)
(-0.01067335082 0.124804899 9.181369501e-22)
(-0.02628578964 0.1687258692 -2.440254505e-23)
(-0.04501281179 0.1916273932 9.191804015e-22)
(-0.06494798802 0.199274701 -2.511621998e-23)
(-0.08536854303 0.1955954285 2.838280645e-23)
(-0.1059331137 0.1827772008 -2.812371847e-23)
(-0.1264953418 0.1616509887 -1.660582761e-23)
(-0.1469030418 0.1321731379 -5.259186145e-22)
(-0.1668495867 0.09389743872 -8.904853343e-24)
(-0.1857343493 0.04641034141 9.658331838e-24)
(-0.2024822607 -0.01023025319 3.312536385e-22)
(-0.2154192197 -0.07498814666 -5.81963074e-22)
(-0.2220239428 -0.1450191665 0)
(-0.218805028 -0.2146624781 8.885271474e-22)
(-0.2016262383 -0.2739869226 -4.93906486e-22)
(-0.1668632447 -0.3075661016 -1.571640192e-23)
(-0.1140207568 -0.2953672358 0)
(-0.05288381901 -0.2195698706 -1.888622422e-22)
(-0.004749039621 -0.08376872741 3.359033221e-22)
(-0.0003643944076 0.05901867459 1.550770334e-23)
(-0.01049706433 0.1379768753 -8.762766398e-22)
(-0.02441661969 0.1856649676 -1.156898134e-21)
(-0.04027126444 0.2101214374 -8.627547367e-22)
(-0.05631243923 0.2182184985 0)
(-0.0721546943 0.2146049965 3.513217156e-23)
(-0.08779924066 0.2018686616 -7.29364055e-23)
(-0.1034641407 0.1809941042 5.866899339e-23)
(-0.1194070089 0.1518974104 3.020819806e-22)
(-0.1358023936 0.1139165644 -1.128013659e-23)
(-0.1526178576 0.06621897787 0)
(-0.169461772 0.008184423412 -3.603332279e-22)
(-0.1852852356 -0.06015081454 7.514609092e-22)
(-0.1980530409 -0.1372643155 8.830603646e-22)
(-0.2043612511 -0.2189147351 -5.295592201e-22)
(-0.1991023668 -0.2959588688 5.161803983e-22)
(-0.1760629804 -0.3513941078 1.077716597e-23)
(-0.1300896853 -0.3584021708 -1.095023349e-23)
(-0.06688770101 -0.2843172 -8.22947448e-23)
(-0.007083208546 -0.116991937 0)
(-0.0009097911983 0.06539680369 -1.911235089e-23)
(-0.01167773987 0.1502720993 -1.32680934e-21)
(-0.02389275932 0.2000524878 1.094086063e-21)
(-0.03601944177 0.2244065844 6.73411792e-22)
(-0.04658100606 0.2316441999 6.01388504e-22)
(-0.05577991752 0.2272269201 6.643097216e-22)
(-0.06412332619 0.2141683336 -4.458044695e-23)
(-0.07228757579 0.1936441566 -3.460892097e-22)
(-0.08098252944 0.165601424 2.151893407e-22)
(-0.09088527356 0.1292728172 0)
(-0.1025683362 0.08353571213 0)
(-0.1163756724 0.02720698337 2.655136702e-22)
(-0.1321718482 -0.04061199024 8.19499465e-23)
(-0.1489370525 -0.1200041462 -2.821089885e-22)
(-0.1641385952 -0.2089209967 -5.410686957e-23)
(-0.1727956923 -0.3006896993 1.302057566e-22)
(-0.1670364297 -0.3793226684 -3.399775819e-22)
(-0.1365318649 -0.4136345988 -1.600229951e-23)
(-0.0801830624 -0.3538232044 8.218227813e-23)
(-0.01050759042 -0.1594084997 -6.033249963e-22)
(-0.002260712068 0.07348634719 0)
(-0.01580570939 0.1626448987 2.145638127e-21)
(-0.0266552291 0.2117796578 0)
(-0.03423092823 0.2333822307 -1.351660568e-21)
(-0.0376039954 0.2377644154 6.184711686e-23)
(-0.03800894212 0.2312448864 -6.192289218e-22)
(-0.03669632372 0.2171822913 -4.755735083e-22)
(-0.03490515129 0.1968893527 8.300253187e-22)
(-0.03380385731 0.1703335582 -1.885460246e-22)
(-0.03451447167 0.1367244921 0)
(-0.03813129187 0.09480151375 0)
(-0.04566499907 0.0430492104 2.410952619e-23)
(-0.05792233138 -0.02013070848 -6.006663276e-22)
(-0.07515914674 -0.09619933988 -4.3091796e-22)
(-0.09646336882 -0.1855486862 4.637562908e-22)
(-0.1183558278 -0.2853499836 -6.487965948e-22)
(-0.1332786092 -0.383831549 9.117600835e-23)
(-0.1265392686 -0.4504283607 2.944049334e-23)
(-0.08899298153 -0.4198462393 5.660859184e-22)
(-0.01526926075 -0.2111678699 6.02188065e-22)
(-0.005181083134 0.08597920786 0)
(-0.02525771229 0.1766244076 1.465632308e-22)
(-0.03483917381 0.2205884275 -4.916708342e-23)
(-0.03640830788 0.2354765198 7.642175605e-22)
(-0.03019583982 0.2343311531 -7.004646579e-22)
(-0.0191791733 0.2241521334 4.745987407e-23)
(-0.005630109427 0.2083465775 -1.01855902e-22)
(0.008553618629 0.1881208819 -3.389504091e-22)
(0.02178235914 0.1633907465 2.062626974e-22)
(0.03261150993 0.1333264539 0)
(0.03956889812 0.09664503093 0)
(0.04115540189 0.05174597835 -2.902440452e-22)
(0.03577117816 -0.003249536951 0)
(0.02196942495 -0.07057785952 -5.511916546e-22)
(-0.001275818328 -0.1525683521 -1.491483604e-23)
(-0.03311393408 -0.250590371 2.559491738e-23)
(-0.06909973531 -0.359929703 2.202661149e-22)
(-0.09228309991 -0.4575381145 4.790443224e-24)
(-0.08718286419 -0.4698080821 -5.789861595e-22)
(-0.02103147664 -0.2698940581 0)
(-0.01111641259 0.1085973841 0)
(-0.0424908217 0.1947129437 -8.847795529e-22)
(-0.04795975185 0.2258149416 -5.410718586e-22)
(-0.03920280013 0.2282073208 4.543525149e-22)
(-0.01878859667 0.2182261387 -1.710178646e-24)
(0.007651610024 0.2028160079 -4.560678173e-23)
(0.03666554336 0.1847574715 5.696134037e-22)
(0.06581461319 0.1647092081 -2.766633647e-23)
(0.09325564103 0.1423123634 -2.069582711e-22)
(0.1173738829 0.116629025 3.141955877e-23)
(0.1365317626 0.08641455337 -3.425670901e-23)
(0.1489537085 0.05018083035 -3.690380799e-23)
(0.152515802 0.006163725087 3.205468421e-22)
(0.1449264479 -0.04795690077 6.119309992e-22)
(0.1235071341 -0.115301555 -5.100935145e-22)
(0.08632804407 -0.2004166334 -1.615958242e-22)
(0.03198452045 -0.3067783935 1.531363632e-22)
(-0.02362578646 -0.4239814361 7.293802801e-23)
(-0.06492598371 -0.4871586878 1.913305107e-21)
(-0.02509997197 -0.3291524475 2.955006758e-21)
(-0.0200467377 0.1460733441 -4.390018919e-23)
(-0.06416489134 0.2112952059 4.417190551e-23)
(-0.05070496809 0.217728031 1.00013818e-21)
(-0.01934595932 0.201464609 -8.264757587e-24)
(0.02413718751 0.180903585 0)
(0.07153147957 0.1606894347 4.363374629e-23)
(0.1190588698 0.1416464359 -2.273653956e-22)
(0.1644641754 0.1233162344 -9.027135006e-23)
(0.2062121553 0.1048111636 3.680399086e-23)
(0.2429516187 0.08507216803 -1.701518094e-23)
(0.2732089073 0.06296334485 3.429723918e-23)
(0.2952430469 0.0372655413 -6.592275067e-23)
(0.3066879123 0.006537983275 -9.303410938e-23)
(0.3049660806 -0.03087489343 1.516976173e-22)
(0.2863873206 -0.0778605813 0)
(0.2470517867 -0.1399284289 1.505503713e-22)
(0.1810881586 -0.2266292443 2.560004659e-22)
(0.09604146595 -0.3443885976 0)
(-0.006699168798 -0.4552200651 -3.675654091e-21)
(-0.01922433619 -0.3777528729 -2.892635556e-21)
(-0.0259193253 0.2276835139 -9.514085579e-22)
(-0.03998294743 0.223822089 -1.388932402e-22)
(0.03656103942 0.1810581489 -2.335458686e-22)
(0.1090486361 0.1451047002 -1.193670016e-22)
(0.1817156901 0.1172428078 -4.295611909e-23)
(0.2490037747 0.096277232 9.782395891e-23)
(0.3100267437 0.0800235294 -1.408465687e-22)
(0.3646128316 0.0665670998 1.297057592e-22)
(0.4126165397 0.05449140121 -8.619340862e-23)
(0.4536163198 0.04270923354 1.132168068e-25)
(0.4867797024 0.03032383329 1.527636845e-23)
(0.5107379239 0.01653024814 7.996707106e-23)
(0.5236537969 0.0005378214636 -1.811029751e-22)
(0.5231752689 -0.01863246166 -1.617078018e-22)
(0.5052290128 -0.04286376436 -4.262631004e-23)
(0.4658691663 -0.07633166876 0)
(0.395267954 -0.1286087373 -1.846499413e-22)
(0.2916058277 -0.2208467525 8.148781503e-22)
(0.1197447366 -0.3525016373 1.631605157e-21)
(0.02670527681 -0.3775496824 2.172657461e-21)
(0.2142896418 0.134744911 9.864857827e-22)
(0.2776317256 0.09870527935 0)
(0.4316599057 0.05810426232 -2.594227243e-22)
(0.5304752156 0.03846261031 -1.741587697e-22)
(0.6016960636 0.0262340367 0)
(0.657118406 0.01831903912 -6.008609801e-23)
(0.7015189472 0.01313584084 6.377396367e-23)
(0.7376011452 0.009542034785 -1.799968153e-23)
(0.7669333773 0.006804475848 2.885682608e-23)
(0.7902072132 0.00446485971 2.314820874e-23)
(0.8074523894 0.002221517709 0)
(0.8182596113 -0.0001498266219 -2.872839974e-23)
(0.8216481758 -0.002723587693 0)
(0.8162383789 -0.005712472305 2.737947005e-23)
(0.799132873 -0.009611267385 1.421580392e-23)
(0.7679985914 -0.01500252025 -5.799484133e-23)
(0.7106556853 -0.02502525097 -2.535672938e-22)
(0.6235184684 -0.0420429145 -6.918115846e-22)
(0.4230090945 -0.09182974337 0)
(0.2705674502 -0.1524022125 -2.119485288e-21)
)


// ************************************************************************* //
