/*--------------------------------*- C++ -*----------------------------------*\
  =========                 |
  \\      /  F ield         | OpenFOAM: The Open Source CFD Toolbox
   \\    /   O peration     | Website:  https://openfoam.org
    \\  /    A nd           | Version:  13
     \\/     M anipulation  |
\*---------------------------------------------------------------------------*/
FoamFile
{
    format      ascii;
    class       vectorField;
    location    "42.7";
    object      U_all;
}
// * * * * * * * * * * * * * * * * * * * * * * * * * * * * * * * * * * * * * //


400
(
(1.100602356e-05 -3.783182709e-05 0)
(-0.0006660950165 0.0004130426984 -1.551309721e-23)
(-0.002185374076 0.0009203935915 0)
(-0.004047832422 0.001312781028 0)
(-0.005971868426 0.001535066195 6.845879013e-25)
(-0.007762783633 0.001569848349 4.15131086e-24)
(-0.009284545323 0.001423563753 -7.374003821e-24)
(-0.01043594109 0.001119722942 7.530117827e-24)
(-0.01113681405 0.000696082073 -2.095497315e-25)
(-0.0113271117 0.0002030774247 -3.994751681e-24)
(-0.01097177345 -0.0003002332548 5.803700582e-24)
(-0.01007232893 -0.0007475158261 -5.929525216e-23)
(-0.008679880772 -0.001075562253 -6.552637848e-23)
(-0.006902853102 -0.001233044234 -7.78422473e-23)
(-0.004910737726 -0.001192638632 4.573574695e-24)
(-0.002927231477 -0.0009619206393 -4.137942835e-24)
(-0.001205299023 -0.0005912118374 -1.998760894e-22)
(-1.90687877e-05 -0.0001698829789 0)
(0.0005181534731 0.0001720857849 1.509523264e-25)
(0.000222751183 0.0003059789444 -2.551785903e-24)
(-0.0002633627681 0.0008289700113 1.382967656e-25)
(-0.002703304893 0.00338384218 1.561108237e-23)
(-0.006907276258 0.005604501349 1.555367794e-25)
(-0.0119523192 0.007008207404 -8.495127695e-25)
(-0.01713504434 0.007553776239 1.162109712e-24)
(-0.02197535499 0.007294200521 1.306976132e-23)
(-0.02611076177 0.00632189525 1.387900311e-24)
(-0.02926564804 0.004754193745 -7.281888353e-24)
(-0.03122673041 0.002737151779 1.015219517e-23)
(-0.03184200994 0.0004524056013 4.51011362e-24)
(-0.03102761471 -0.001884144674 -6.318986637e-24)
(-0.02879316691 -0.004023029045 2.961345593e-24)
(-0.0252713845 -0.005708353784 3.895459201e-23)
(-0.02073194966 -0.006707408919 -1.95474599e-24)
(-0.01558962693 -0.00685413999 3.754437976e-24)
(-0.01038513429 -0.00609746474 -9.740898554e-23)
(-0.005730272388 -0.004546187395 9.637685716e-23)
(-0.002233367239 -0.002507419932 -3.961193722e-25)
(-0.0001817758519 -0.0005023727979 4.061095841e-25)
(8.343488493e-05 0.0006099257117 0)
(-0.000418823308 0.002935079949 -2.910418399e-25)
(-0.004647874661 0.008804015797 1.70210923e-23)
(-0.01137196053 0.01324042474 -8.284498321e-24)
(-0.01932729125 0.01579204156 -2.075370978e-25)
(-0.02747411729 0.01653000058 2.038835439e-25)
(-0.03511778858 0.01564441701 6.847912058e-27)
(-0.04171344859 0.01335997651 -1.220385302e-24)
(-0.04683571765 0.009919771643 -4.55155457e-25)
(-0.05014988961 0.0056024336 -1.063037131e-23)
(-0.05141231936 0.0007444204289 0)
(-0.05047793299 -0.004241780951 0)
(-0.04733706333 -0.00888718756 2.671049515e-23)
(-0.04215927971 -0.0126817697 2.81303885e-23)
(-0.03531437479 -0.01513605169 -1.646166592e-24)
(-0.02738996296 -0.01586189534 4.845874229e-23)
(-0.01917005913 -0.0146733415 9.419204305e-23)
(-0.01156090767 -0.01169360385 3.975682375e-23)
(-0.005465412451 -0.007450743281 4.141874285e-25)
(-0.001451100085 -0.002936043754 1.073754021e-25)
(-9.072761357e-05 0.0002258770544 0)
(-0.0005024630315 0.006045350394 -4.24889883e-23)
(-0.006402739887 0.01637075627 -1.692335838e-23)
(-0.01553502479 0.02355933682 8.21136301e-24)
(-0.02627912121 0.0274416272 0)
(-0.03728746821 0.02832102252 0)
(-0.0476903753 0.02658772583 0)
(-0.05679663073 0.02263120373 -4.469778317e-26)
(-0.06405384088 0.01683609325 -2.136368284e-24)
(-0.06901081582 0.009622184013 0)
(-0.0713082797 0.001491049965 1.635423109e-24)
(-0.07070853621 -0.006936504335 2.802727638e-25)
(-0.06713039517 -0.01493018927 -2.810575194e-25)
(-0.06069905698 -0.0216672826 0)
(-0.05180750599 -0.02631605844 4.133289661e-23)
(-0.04114991711 -0.02816070929 -4.681586644e-23)
(-0.02971970244 -0.02677372257 -2.761956274e-23)
(-0.01873716707 -0.02221530526 -3.960827992e-23)
(-0.009488028898 -0.01521922191 7.795908313e-25)
(-0.002976880479 -0.007298194635 9.790349196e-23)
(-0.0002318799895 -0.0008661678587 0)
(-0.0005316130491 0.01009501629 4.269560657e-23)
(-0.00798359276 0.02595219622 4.785056234e-25)
(-0.01939687502 0.03642882943 -4.675767924e-25)
(-0.03282382524 0.04185520855 0)
(-0.04664689101 0.04289485374 7.783055128e-25)
(-0.0598522977 0.04020074153 -7.675139807e-25)
(-0.07163291472 0.03434741752 3.672298567e-23)
(-0.08132751335 0.02585664138 1.848150613e-23)
(-0.08836601166 0.01527298375 6.238690287e-24)
(-0.09225469635 0.0032461471 -1.637328399e-24)
(-0.09260379885 -0.009407832691 0)
(-0.08917555603 -0.02167478083 4.370577465e-25)
(-0.08195979322 -0.03236745151 1.009001476e-23)
(-0.07126885478 -0.04021250251 -4.349321525e-23)
(-0.05782018828 -0.04402046445 1.932908581e-24)
(-0.04278582968 -0.0429482945 4.21730419e-23)
(-0.02775450344 -0.0368334699 -3.841828971e-25)
(-0.01455062342 -0.02652721004 0)
(-0.004859462583 -0.01408454489 5.436543358e-23)
(-0.0003641484038 -0.002846953237 -2.565075412e-22)
(-0.0005272210839 0.01499927755 9.84155068e-23)
(-0.009377925411 0.03739022372 -4.907813956e-25)
(-0.02288182793 0.05170223111 0)
(-0.03883043578 0.05894183254 0)
(-0.05538656864 0.06025574759 -8.732053269e-23)
(-0.07142876784 0.05661901179 -8.499055072e-23)
(-0.08606654265 0.04880168854 -4.067553133e-23)
(-0.09855086111 0.03743980562 -1.504351557e-23)
(-0.1081945324 0.02315983987 -5.368744481e-24)
(-0.1143444743 0.006709679363 -8.174931949e-24)
(-0.1164046223 -0.01093292158 6.601054154e-24)
(-0.1138937415 -0.02848945068 8.826610085e-24)
(-0.1065486991 -0.04437046306 -1.892311272e-23)
(-0.09446804112 -0.05675333836 4.607593119e-24)
(-0.07826856922 -0.06378298744 0)
(-0.05922895435 -0.06393495492 -1.572900019e-23)
(-0.03933981899 -0.05653816329 -2.428281906e-26)
(-0.02114188813 -0.04235809137 0)
(-0.007318702748 -0.02398229404 -1.52064561e-22)
(-0.0005216164733 -0.005925544835 6.056265072e-22)
(-0.0004990822249 0.02064574586 -9.774502136e-23)
(-0.01052951003 0.05045438235 2.831984834e-22)
(-0.02582957486 0.06912511797 1.526862526e-22)
(-0.04402138366 0.07849258022 3.619265507e-24)
(-0.06310739258 0.08029476532 -7.319372407e-23)
(-0.08190405175 0.07588043021 9.043510038e-23)
(-0.09947763755 0.06621690767 -3.590203476e-24)
(-0.1150227383 0.05201695095 -1.729170679e-24)
(-0.1277519185 0.03392358494 2.524160439e-24)
(-0.1368472608 0.0127023319 7.382567766e-24)
(-0.141471053 -0.01058782323 -6.500804864e-24)
(-0.1408248191 -0.03446024373 -9.788024113e-24)
(-0.1342745977 -0.05692771731 -3.26172697e-23)
(-0.1215450247 -0.07553316259 -3.661476846e-23)
(-0.1029672661 -0.08754260611 5.645930575e-25)
(-0.07976369921 -0.09039209701 0)
(-0.05426682488 -0.08244513756 0)
(-0.02987160939 -0.06397736847 -2.906060243e-24)
(-0.01066285142 -0.037987947 2.970509376e-24)
(-0.0007350936545 -0.01050089473 1.027872677e-22)
(-0.0004479164996 0.02687251148 0)
(-0.01134923243 0.06480757584 2.001972172e-22)
(-0.02801599717 0.08829617322 8.96202914e-23)
(-0.04799857398 0.1001234954 0)
(-0.0692060207 0.1027076562 1.569880526e-22)
(-0.09044373291 0.0978157871 0)
(-0.1107831692 0.08661103117 -1.428387972e-22)
(-0.1294093775 0.0698395042 6.515555364e-24)
(-0.1454771647 0.04808232234 0)
(-0.1580351826 0.02201755595 0)
(-0.166013347 -0.007334439591 -1.374410338e-24)
(-0.1682671573 -0.03838839721 -9.316760771e-25)
(-0.1637064713 -0.06883975856 1.49197885e-22)
(-0.1515208775 -0.09558275766 -4.704627378e-23)
(-0.1315134565 -0.114829866 -2.56097075e-24)
(-0.1045596083 -0.1225703413 1.534728828e-24)
(-0.07309349932 -0.1155517967 -1.558938079e-24)
(-0.04135021506 -0.09283115568 0)
(-0.01525230281 -0.05740767629 3.203811936e-24)
(-0.001044309097 -0.01714714462 -1.012914133e-21)
(-0.0003744664193 0.03346304508 0)
(-0.0117500606 0.07998918768 -1.128288596e-22)
(-0.02920707946 0.1086390951 -6.191149133e-22)
(-0.05031745069 0.1232233999 -3.755307219e-22)
(-0.07296317516 0.1269097041 0)
(-0.09598960292 0.1219255646 4.119458689e-22)
(-0.1185273495 0.1096348649 1.260924618e-22)
(-0.1398146434 0.0907824591 -5.581834963e-24)
(-0.1590221567 0.06581393187 5.55420788e-24)
(-0.1751461022 0.03520881114 0)
(-0.1869560004 -0.0001967469867 2.912130989e-23)
(-0.1930172669 -0.03889754321 4.695839275e-24)
(-0.1917809933 -0.07843888518 -1.076808502e-22)
(-0.1817874454 -0.1151865378 8.004209024e-23)
(-0.162057045 -0.1442599466 -2.419746174e-22)
(-0.1327062012 -0.1598548631 0)
(-0.09577888232 -0.1563112889 0)
(-0.05601633093 -0.1302981085 0)
(-0.02147859149 -0.08381135108 0)
(-0.00150038464 -0.02665516282 5.572116746e-22)
(-0.0002873898888 0.04016077742 0)
(-0.01169359612 0.09543611551 -3.493013818e-22)
(-0.02924438286 0.1294073634 8.932796876e-22)
(-0.05060947302 0.1469299176 3.617179586e-22)
(-0.07370082683 0.1519748681 0)
(-0.09745151179 0.1472757968 -3.862556409e-22)
(-0.1211069843 0.1344191954 -3.174431512e-23)
(-0.1440324793 0.1141393321 3.333106089e-22)
(-0.1655143244 0.08670006622 1.769475109e-22)
(-0.1846248531 0.05229123497 -4.06015254e-23)
(-0.2001325822 0.01141716195 1.656821654e-23)
(-0.2104622454 -0.03471424143 -8.265249506e-24)
(-0.2137208539 -0.08376563609 3.371858851e-22)
(-0.2078215508 -0.1318756349 0)
(-0.1908238543 -0.1732756139 2.4209152e-22)
(-0.1616335743 -0.2002593397 5.774777152e-24)
(-0.1211662694 -0.2040121711 -5.860896159e-24)
(-0.07384989819 -0.1772119957 1.548448157e-22)
(-0.02971786836 -0.1188642327 -5.435460924e-24)
(-0.002179545173 -0.04005398729 0)
(-0.0002117198814 0.04671640035 0)
(-0.01125001072 0.1105498131 0)
(-0.02815624433 0.1497355009 -5.022755832e-22)
(-0.04874479292 0.1701517611 -1.880997702e-23)
(-0.07100086642 0.1766257155 2.038378684e-23)
(-0.09399451507 0.172452652 -2.014311181e-23)
(-0.1171434301 0.1594870994 -2.316884329e-23)
(-0.1400179504 0.1384805085 -3.02982451e-22)
(-0.1621328889 0.1095160714 6.698616245e-23)
(-0.1827959035 0.07245186944 4.513178422e-23)
(-0.2009835554 0.02734928826 -4.57772117e-23)
(-0.2152270262 -0.02508697771 0)
(-0.2235562212 -0.08298351366 -7.839684531e-23)
(-0.2234632197 -0.1427257333 0)
(-0.2120679433 -0.1981820884 -3.739562962e-22)
(-0.1867434551 -0.24007737 5.244955283e-22)
(-0.1464438306 -0.2560773417 0)
(-0.09394567741 -0.2331209509 -1.493994242e-22)
(-0.04022000999 -0.1639613663 1.937550856e-22)
(-0.003201100286 -0.05861063144 -3.411530445e-22)
(-0.0002015409062 0.05297585137 0)
(-0.01067261865 0.1248172395 9.182872787e-22)
(-0.0262844665 0.1687424588 -2.440686346e-23)
(-0.04501107791 0.1916455147 9.193340679e-22)
(-0.06494597499 0.1992921062 -2.512086646e-23)
(-0.08536628549 0.1956104326 2.838844723e-23)
(-0.1059305651 0.182788685 -2.812930777e-23)
(-0.1264924189 0.1616583512 -1.660918508e-23)
(-0.1468996847 0.1321762299 -5.260230641e-22)
(-0.1668458156 0.09389646593 -8.906631021e-24)
(-0.1857303022 0.0464057625 9.660197895e-24)
(-0.2024781684 -0.01023784792 3.313078472e-22)
(-0.2154154612 -0.07499820379 -5.82074124e-22)
(-0.2220209715 -0.1450311844 0)
(-0.2188032104 -0.2146760624 8.887325552e-22)
(-0.2016257525 -0.274001643 -4.940887851e-22)
(-0.1668639193 -0.3075811964 -1.572223541e-23)
(-0.1140220094 -0.2953811918 0)
(-0.05288482021 -0.2195802582 -1.890184547e-22)
(-0.004749188161 -0.08377277967 3.360588211e-22)
(-0.0003641985144 0.05902317797 1.551010666e-23)
(-0.01049573936 0.1379881507 -8.764200272e-22)
(-0.02441389517 0.1856804108 -1.157059404e-21)
(-0.04026724411 0.2101384757 -8.628989487e-22)
(-0.05630729598 0.2182348917 0)
(-0.07214856542 0.2146190277 3.513806035e-23)
(-0.0877922161 0.2018791964 -7.294868143e-23)
(-0.103456279 0.1810005616 5.867886035e-23)
(-0.1193983872 0.1518997245 3.02136776e-22)
(-0.1357931546 0.1139150569 -1.128196077e-23)
(-0.1526082321 0.06621424932 0)
(-0.1694521377 0.00817720315 -3.603930596e-22)
(-0.18527606 -0.06015987727 7.515670006e-22)
(-0.198044852 -0.1372747015 8.831705968e-22)
(-0.2043546267 -0.2189261892 -5.296628526e-22)
(-0.1990977616 -0.2959712917 5.162690889e-22)
(-0.1760605333 -0.3514072594 1.078233302e-23)
(-0.1300890633 -0.3584150789 -1.095548348e-23)
(-0.06688803311 -0.2843276515 -8.215323387e-23)
(-0.007083319932 -0.1169964419 0)
(-0.0009095775874 0.06540041571 -1.911487244e-23)
(-0.01167591711 0.1502816414 -1.326965847e-21)
(-0.02388882048 0.2000659563 1.094237774e-21)
(-0.03601340398 0.2244216969 6.734931241e-22)
(-0.04657308717 0.2316588247 6.01463312e-22)
(-0.05577038463 0.2272393702 6.643958568e-22)
(-0.06411245696 0.2141774884 -4.458678382e-23)
(-0.07227561581 0.1936494389 -3.461337749e-22)
(-0.08096972883 0.1656028322 2.152162796e-22)
(-0.09087192256 0.1292707358 0)
(-0.1025547447 0.08353082473 0)
(-0.1163622152 0.0272001071 2.655397399e-22)
(-0.1321589555 -0.04062006031 8.194326638e-23)
(-0.1489252315 -0.1200128309 -2.821624127e-22)
(-0.1641284279 -0.208930069 -5.41127263e-23)
(-0.1727877619 -0.3006992506 1.301952017e-22)
(-0.1670311306 -0.3793329102 -3.400505414e-22)
(-0.136529244 -0.4136451969 -1.593845262e-23)
(-0.08018250144 -0.3538326204 8.204096056e-23)
(-0.01050762293 -0.159413057 -6.032161467e-22)
(-0.002260498417 0.07348883534 0)
(-0.01580355656 0.1626521774 2.145875021e-21)
(-0.0266504258 0.2117904738 0)
(-0.03422339617 0.2333947271 -1.35180811e-21)
(-0.03759398512 0.2377766826 6.184051129e-23)
(-0.0379968526 0.2312553524 -6.193096093e-22)
(-0.036682659 0.2171899013 -4.756285141e-22)
(-0.03489036331 0.1968934496 8.301256126e-22)
(-0.03378837904 0.1703342387 -1.885698352e-22)
(-0.03449876438 0.136722108 0)
(-0.0381157272 0.0947967366 0)
(-0.04564992445 0.04304286617 2.410615255e-23)
(-0.05790804325 -0.02013781199 -6.00719948e-22)
(-0.0751459858 -0.0962065018 -4.30956765e-22)
(-0.09645175032 -0.1855556169 4.637863064e-22)
(-0.1183462621 -0.2853567768 -6.488736163e-22)
(-0.1332715386 -0.3838386531 9.119946914e-23)
(-0.1265350991 -0.4504358711 2.937330486e-23)
(-0.08899154093 -0.4198536373 5.660445232e-22)
(-0.01526917931 -0.211171973 6.020794206e-22)
(-0.005180899548 0.08598045974 0)
(-0.02525550721 0.1766291192 1.465579349e-22)
(-0.03483408008 0.2205961552 -4.91714514e-23)
(-0.03640013908 0.2354859345 7.642931065e-22)
(-0.03018483089 0.2343406748 -7.005378453e-22)
(-0.01916579466 0.224160388 4.746481245e-23)
(-0.005615150375 0.2083525843 -1.018609733e-22)
(0.00856960782 0.1881241088 -3.389888955e-22)
(0.02179886179 0.1633911272 2.062822902e-22)
(0.03262781465 0.1333242735 0)
(0.03958458541 0.09664086219 0)
(0.04117013237 0.0517405648 -2.902667958e-22)
(0.03578483805 -0.003255397474 0)
(0.0219818467 -0.07058360809 -5.512187438e-22)
(-0.001264846118 -0.1525735504 -1.492377471e-23)
(-0.03310469883 -0.2505949844 2.559740714e-23)
(-0.06909235819 -0.3599341513 2.203142224e-22)
(-0.09227827005 -0.4575424524 4.788092884e-24)
(-0.08718089923 -0.4698129412 -5.789413756e-22)
(-0.02103127148 -0.2698972295 0)
(-0.01111631552 0.1085974976 0)
(-0.04248901883 0.1947151678 -8.848479951e-22)
(-0.04795528969 0.2258195509 -5.411040269e-22)
(-0.03919535997 0.2282135552 4.543817352e-22)
(-0.01877830352 0.218232813 -1.70998648e-24)
(0.007664313279 0.202822035 -4.561049842e-23)
(0.03667993335 0.1847619766 5.696682247e-22)
(0.06582998528 0.1647118214 -2.766890553e-23)
(0.09327130838 0.1423128179 -2.069781793e-22)
(0.1173891602 0.1166274941 3.142213668e-23)
(0.1365461681 0.0864114392 -3.425917337e-23)
(0.1489669261 0.05017669062 -3.690594313e-23)
(0.1525275774 0.006159167242 3.205633713e-22)
(0.1449367026 -0.04796126999 6.119606625e-22)
(0.1235159786 -0.1153052906 -5.101171905e-22)
(0.08633533391 -0.2004195647 -1.616058216e-22)
(0.03199089254 -0.3067806589 1.531308119e-22)
(-0.02362123183 -0.4239837143 7.293653494e-23)
(-0.06492413065 -0.4871612787 1.913291769e-21)
(-0.02509971704 -0.3291544742 2.95499164e-21)
(-0.02004680469 0.1460727405 -4.390207622e-23)
(-0.06416406262 0.2112955858 4.417380366e-23)
(-0.05070230612 0.2177300482 1.000188617e-21)
(-0.019340974 0.2014679985 -8.270592639e-24)
(0.02414464889 0.1809076179 0)
(0.07154122014 0.1606933347 4.363722667e-23)
(0.11907034 0.1416495492 -2.273852072e-22)
(0.1644767325 0.1233181821 -9.027957894e-23)
(0.2062251151 0.1048117294 3.680734887e-23)
(0.2429643015 0.08507140095 -1.701655081e-23)
(0.2732207572 0.06296147691 3.429970645e-23)
(0.2952536103 0.03726293837 -6.592681757e-23)
(0.3066971056 0.006535068295 -9.303906361e-23)
(0.304973831 -0.03087770037 1.517044256e-22)
(0.2863936247 -0.07786290964 0)
(0.2470568083 -0.1399300369 1.505611219e-22)
(0.1810922234 -0.2266299752 2.56001399e-22)
(0.09604450232 -0.3443894947 0)
(-0.006697615967 -0.4552210218 -3.675635084e-21)
(-0.01922408203 -0.3777537588 -2.892621107e-21)
(-0.0259195133 0.2276828801 -9.514204776e-22)
(-0.03998324634 0.2238216526 -1.388976422e-22)
(0.03656136869 0.181058536 -2.335581894e-22)
(0.1090503042 0.1451059093 -1.193742453e-22)
(0.1817191191 0.1172445497 -4.29582653e-23)
(0.2490090732 0.09627907645 9.78318392e-23)
(0.3100336702 0.08002510427 -1.408592552e-22)
(0.3646209333 0.06656815344 1.297175523e-22)
(0.4126252493 0.05449178898 -8.620121773e-23)
(0.4536250299 0.04270894931 1.132188986e-25)
(0.4867878724 0.03032298422 1.527741952e-23)
(0.5107451366 0.01652901856 7.997205944e-23)
(0.5236597458 0.0005365142903 -1.811124065e-22)
(0.5231798016 -0.0186337326 -1.617146392e-22)
(0.5052323423 -0.04286478967 -4.262954695e-23)
(0.4658715084 -0.07633231194 0)
(0.3952696499 -0.1286089385 -1.846477689e-22)
(0.2916071049 -0.2208468099 8.148763716e-22)
(0.1197455106 -0.3525016903 1.631601634e-21)
(0.02670547259 -0.377549798 2.172655938e-21)
(0.2142894469 0.1347447207 9.864989725e-22)
(0.2776311183 0.09870503545 0)
(0.4316592286 0.05810414817 -2.59432094e-22)
(0.5304749343 0.03846264949 -1.741666749e-22)
(0.601696575 0.02623419118 0)
(0.657119896 0.0183192348 -6.009093711e-23)
(0.7015213606 0.01313600851 6.378003331e-23)
(0.7376042503 0.009542126357 -1.800156955e-23)
(0.7669368419 0.006804463582 2.885974796e-23)
(0.7902106688 0.004464743838 2.315033575e-23)
(0.8074555013 0.002221319767 0)
(0.8182621357 -0.0001500750752 -2.873033304e-23)
(0.8216499718 -0.002723848377 0)
(0.8162394199 -0.005712668722 2.738151262e-23)
(0.799133315 -0.009611382874 1.421692027e-23)
(0.7679986347 -0.01500255108 -5.799403687e-23)
(0.7106555756 -0.02502519955 -2.535661101e-22)
(0.6235183981 -0.04204285408 -6.918101985e-22)
(0.4230091021 -0.09182968082 0)
(0.2705674689 -0.1524021841 -2.119483802e-21)
)


// ************************************************************************* //
