/*--------------------------------*- C++ -*----------------------------------*\
  =========                 |
  \\      /  F ield         | OpenFOAM: The Open Source CFD Toolbox
   \\    /   O peration     | Website:  https://openfoam.org
    \\  /    A nd           | Version:  13
     \\/     M anipulation  |
\*---------------------------------------------------------------------------*/
FoamFile
{
    format      ascii;
    class       scalarField;
    location    "48.12";
    object      p_all;
}
// * * * * * * * * * * * * * * * * * * * * * * * * * * * * * * * * * * * * * //


400
(
9.512738958e-09
-0.0005474967413
-0.0008895489326
-0.001017041248
-0.0009381829363
-0.0006853284562
-0.0002960460642
0.000193676311
0.0007473133828
0.001324376085
0.00187921974
0.002358983605
0.002708274695
0.002874003221
0.002814642133
0.00251220059
0.001987148038
0.001296619515
0.0006376939476
4.179269367e-05
0.0005881617402
6.862075244e-06
-0.0003568813316
-0.0004992159489
-0.0004685632596
-0.0002914948667
2.602501001e-06
0.0003844378263
0.0008226044099
0.001279839668
0.001716300121
0.002080828265
0.00232304966
0.002395596577
0.002264600268
0.001921292137
0.001392423734
0.0007430505035
0.0001454042271
-0.0005172820426
0.0009524181567
0.0003080112757
-9.324789485e-05
-0.0002395886996
-0.0002334759988
-0.0001049799499
0.0001218586441
0.0004257459718
0.0007829459132
0.001161451942
0.001529468077
0.001832864329
0.002021712315
0.0020472877
0.001874453362
0.001493393645
0.0009280915303
0.0002351081245
-0.0004633618178
-0.00130033506
0.0009761226016
0.0002579562233
-0.0001922930247
-0.0003445932505
-0.0003538632926
-0.00025689096
-7.430878985e-05
0.0001812910633
0.0004963636156
0.0008506707007
0.001203015731
0.001510484151
0.001712277195
0.001747863854
0.001568375541
0.001150426114
0.0005058388655
-0.0003186475076
-0.001233980671
-0.002384780638
0.0004804601643
-0.000285030714
-0.0007639346478
-0.0009156357045
-0.0009366628441
-0.000868243318
-0.0007253454419
-0.0005084181872
-0.0002171757962
0.0001391339543
0.0005300760927
0.0009073766548
0.001199810537
0.001326492324
0.001211008801
0.0008001645844
7.99118671e-05
-0.0009176872991
-0.002127672597
-0.003656172917
-0.0006863810642
-0.001467172789
-0.001956224718
-0.002107279691
-0.002150058403
-0.002126709539
-0.002042332007
-0.001879715064
-0.001617604899
-0.00124557299
-0.0007791567192
-0.0002628960065
0.0002205852594
0.0005614548364
0.0006378005697
0.0003414904614
-0.0003930712946
-0.001564109445
-0.003134895082
-0.005142133333
-0.002661847777
-0.003423561725
-0.003915431576
-0.004080813878
-0.004178183886
-0.004247237808
-0.00427825746
-0.004229205025
-0.004047604815
-0.003689654454
-0.003140801704
-0.002426801986
-0.001633555946
-0.0009034861077
-0.0004248778941
-0.0003987450099
-0.0009882937734
-0.002260634792
-0.004232795557
-0.006828375612
-0.005555052222
-0.00626997436
-0.006768262189
-0.006982211827
-0.007195604268
-0.007443504475
-0.007697212673
-0.007882281099
-0.007902250594
-0.007660695256
-0.007087429873
-0.006159573657
-0.004943824401
-0.003604944688
-0.002414013378
-0.001714595915
-0.001843282947
-0.003015097044
-0.005368532632
-0.008662328661
-0.009435281023
-0.01008161404
-0.01059848162
-0.0109107223
-0.01132612693
-0.01187601373
-0.01251139385
-0.01311977278
-0.01354793678
-0.01362351071
-0.01318263501
-0.01212127949
-0.01042818409
-0.008256715547
-0.005956487445
-0.004062063836
-0.003190328294
-0.003843228997
-0.006426625378
-0.01049181466
-0.0143170515
-0.01487604331
-0.01542303214
-0.01588227586
-0.01659011419
-0.01758024785
-0.01878711202
-0.02005924883
-0.02117774218
-0.02187380127
-0.0218575828
-0.0208724666
-0.01877212464
-0.01562029687
-0.01179526858
-0.008037529553
-0.005360086821
-0.004760345003
-0.00718136598
-0.01197944781
-0.02015455912
-0.02060478933
-0.02117498084
-0.0217969856
-0.02285234105
-0.0243905991
-0.02633947112
-0.02851386233
-0.03062781003
-0.03230375019
-0.03309551065
-0.03254096095
-0.03028273855
-0.02617893672
-0.02052513056
-0.01420415827
-0.008691765829
-0.00572683489
-0.007219480797
-0.01246662816
-0.02685658706
-0.02716234722
-0.0277027864
-0.02842320375
-0.02978940404
-0.03188934305
-0.03465913139
-0.03788989859
-0.04123418877
-0.04420531874
-0.04618839597
-0.04647904594
-0.04446334649
-0.03966029378
-0.03212127857
-0.0226990007
-0.01326680611
-0.006486164898
-0.00580885609
-0.01076545194
-0.03433494821
-0.03441835771
-0.03478969879
-0.03540478342
-0.03689209503
-0.03941024805
-0.04292029395
-0.04719793254
-0.05184033022
-0.05625864819
-0.05968000718
-0.06119117172
-0.05977979597
-0.05465604156
-0.04544131727
-0.0326999572
-0.0184533357
-0.006246142015
-0.001674185148
-0.004873819593
-0.04261008974
-0.04227966168
-0.04219588324
-0.04229620485
-0.04351395179
-0.04611664842
-0.05009986693
-0.05522064136
-0.06101532741
-0.06679644183
-0.07164038859
-0.07441328937
-0.07383284926
-0.0686751678
-0.05807222927
-0.04206210076
-0.02244030909
-0.003257475946
0.007346818523
0.00834121473
-0.05201059442
-0.05076124946
-0.04967807371
-0.04857917295
-0.04892703913
-0.05112046954
-0.05517316932
-0.06079652196
-0.06743583348
-0.07429020355
-0.08028308323
-0.08407653718
-0.08413096934
-0.07883785461
-0.06684311598
-0.04752372329
-0.02212775073
0.005501513266
0.02471511605
0.03352715652
-0.06365619278
-0.06018949141
-0.05709763725
-0.0537646869
-0.05246583151
-0.05368050443
-0.05736535616
-0.06313856002
-0.07026303622
-0.07780150115
-0.08449319119
-0.08878640381
-0.0888987217
-0.08283999494
-0.06885107754
-0.04562109833
-0.01375177505
0.02441665816
0.05553941186
0.07735565252
-0.08018674822
-0.07107530557
-0.06412156314
-0.05716586837
-0.05343203134
-0.05321612232
-0.05625988816
-0.06191492145
-0.06926007287
-0.07711806397
-0.0840133274
-0.08815278285
-0.08748121238
-0.07965692893
-0.06247977331
-0.03405068437
0.005564707379
0.05859388642
0.1058229267
0.1480676346
-0.1105081346
-0.08585544005
-0.07160740822
-0.05897244653
-0.0519148568
-0.04988461446
-0.05210443657
-0.05751060309
-0.06486143649
-0.07271032227
-0.07934174076
-0.08271503502
-0.08052075684
-0.06988765543
-0.04823271755
-0.01272274975
0.03823602974
0.1071319987
0.1779785618
0.2564764005
-0.1684383132
-0.09990960256
-0.07500969322
-0.05479932201
-0.04462047459
-0.04158702067
-0.04371966712
-0.0493836116
-0.0570192792
-0.06497285425
-0.07136372231
-0.07398199184
-0.070130784
-0.05701425734
-0.0310288548
0.01192918917
0.07559938084
0.1664041494
0.2761619282
0.4377041913
-0.3984295963
-0.1381007543
-0.07497185884
-0.04708987387
-0.03355095251
-0.03003177074
-0.03280399188
-0.03926681966
-0.04756062116
-0.05594117969
-0.06250219488
-0.06503125926
-0.06099649101
-0.04697028043
-0.01875706793
0.02993531621
0.1069555734
0.233427163
0.4198801182
0.7800232999
)


// ************************************************************************* //
