/*--------------------------------*- C++ -*----------------------------------*\
  =========                 |
  \\      /  F ield         | OpenFOAM: The Open Source CFD Toolbox
   \\    /   O peration     | Website:  https://openfoam.org
    \\  /    A nd           | Version:  13
     \\/     M anipulation  |
\*---------------------------------------------------------------------------*/
FoamFile
{
    format      ascii;
    class       vectorField;
    location    "48.59";
    object      U_all;
}
// * * * * * * * * * * * * * * * * * * * * * * * * * * * * * * * * * * * * * //


400
(
(1.100851767e-05 -3.783003954e-05 0)
(-0.0006660924403 0.0004130431546 -1.551446164e-23)
(-0.002185373434 0.0009203938484 0)
(-0.004047831997 0.001312781049 0)
(-0.00597186803 0.001535065819 6.845904699e-25)
(-0.007762783544 0.001569847929 4.1510341e-24)
(-0.009284545838 0.001423563786 -7.374548859e-24)
(-0.01043594203 0.001119723552 7.529588087e-24)
(-0.01113681481 0.0006960828771 -2.095327578e-25)
(-0.01132711177 0.0002030778936 -3.994552108e-24)
(-0.0109717728 -0.0003002333944 5.803526972e-24)
(-0.01007232796 -0.0007475163519 -5.929499939e-23)
(-0.008679880054 -0.001075562752 -6.552617918e-23)
(-0.006902852994 -0.001233044408 -7.784195004e-23)
(-0.004910738237 -0.001192638464 4.573517006e-24)
(-0.002927232335 -0.0009619203179 -4.137863227e-24)
(-0.001205299844 -0.0005912115549 -1.998712685e-22)
(-1.906925097e-05 -0.0001698828006 0)
(0.0005181533931 0.0001720858864 1.509360843e-25)
(0.0002227511284 0.0003059791434 -2.549681403e-24)
(-0.000263361454 0.0008289724844 1.382859959e-25)
(-0.002703303479 0.0033838434 1.561246005e-23)
(-0.006907275673 0.005604502424 1.555593587e-25)
(-0.0119523192 0.007008208136 -8.496090434e-25)
(-0.01713504454 0.007553776373 1.162234354e-24)
(-0.0219753551 0.007294200233 1.306989471e-23)
(-0.02611076191 0.006321895094 1.387516644e-24)
(-0.02926564851 0.004754194135 -7.28131982e-24)
(-0.03122673124 0.002737152581 1.015220507e-23)
(-0.03184201085 0.0004524062875 4.509880218e-24)
(-0.03102761523 -0.001884144569 -6.318792866e-24)
(-0.02879316682 -0.004023029509 2.961784531e-24)
(-0.02527138405 -0.00570835445 3.895495442e-23)
(-0.02073194934 -0.006707409365 -1.954742818e-24)
(-0.01558962709 -0.006854140028 3.754424388e-24)
(-0.01038513492 -0.006097464472 -9.740809561e-23)
(-0.005730273164 -0.004546187024 9.637450738e-23)
(-0.002233367815 -0.002507419566 -3.960849527e-25)
(-0.0001817760308 -0.0005023724065 4.06074255e-25)
(8.343483896e-05 0.0006099260811 0)
(-0.0004188229702 0.00293508091 -2.910301231e-25)
(-0.004647873862 0.008804016735 1.701925432e-23)
(-0.01137196004 0.01324042579 -8.284989261e-24)
(-0.01932729138 0.01579204278 -2.075733856e-25)
(-0.02747411792 0.01653000177 2.039191386e-25)
(-0.03511778929 0.01564441779 6.794099523e-27)
(-0.04171344916 0.01335997671 -1.220017402e-24)
(-0.04683571825 0.009919771472 -4.551050354e-25)
(-0.05014989049 0.005602433401 -1.06303767e-23)
(-0.05141232056 0.0007444203342 0)
(-0.05047793418 -0.004241780888 0)
(-0.04733706411 -0.008887187597 2.670968784e-23)
(-0.04215928 -0.01268176997 2.812985862e-23)
(-0.03531437482 -0.01513605211 -1.646144325e-24)
(-0.02738996309 -0.01586189573 4.845809203e-23)
(-0.01917005958 -0.01467334169 9.419118726e-23)
(-0.0115609083 -0.01169360376 3.975595078e-23)
(-0.005465412974 -0.00745074294 4.141395265e-25)
(-0.001451100473 -0.002936043194 1.074038229e-25)
(-9.072784431e-05 0.0002258774976 0)
(-0.0005024629845 0.006045351324 -4.248724838e-23)
(-0.006402739662 0.01637075746 -1.692149587e-23)
(-0.01553502454 0.02355933795 8.211835242e-24)
(-0.0262791213 0.02744162845 0)
(-0.0372874689 0.02832102405 0)
(-0.04769037648 0.0265877274 0)
(-0.0567966321 0.02263120486 -4.464826832e-26)
(-0.06405384228 0.01683609362 -2.137082499e-24)
(-0.06901081726 0.009622183717 0)
(-0.0713082811 0.001491049378 1.635349852e-24)
(-0.07070853743 -0.006936504845 2.80269682e-25)
(-0.0671303962 -0.01493018964 -2.8105443e-25)
(-0.06069905771 -0.02166728294 0)
(-0.05180750649 -0.02631605891 4.133197662e-23)
(-0.04114991756 -0.02816070987 -4.681523839e-23)
(-0.02971970296 -0.02677372308 -2.761896433e-23)
(-0.01873716764 -0.02221530548 -3.960738672e-23)
(-0.009488029411 -0.01521922176 7.79597023e-25)
(-0.00297688097 -0.007298194237 9.790501965e-23)
(-0.0002318803364 -0.0008661673671 0)
(-0.0005316131709 0.01009501713 4.269385063e-23)
(-0.007983592975 0.02595219783 4.785537587e-25)
(-0.01939687531 0.03642883111 -4.676237464e-25)
(-0.03282382561 0.04185521004 0)
(-0.04664689172 0.04289485519 7.783089713e-25)
(-0.05985229893 0.04020074309 -7.675174384e-25)
(-0.07163291645 0.03434741903 3.672336471e-23)
(-0.08132751539 0.02585664249 1.848257903e-23)
(-0.08836601376 0.0152729842 6.238976548e-24)
(-0.09225469829 0.003246146941 -1.637255061e-24)
(-0.09260380049 -0.009407833331 0)
(-0.08917555729 -0.02167478166 4.370489963e-25)
(-0.08195979416 -0.03236745239 1.008967006e-23)
(-0.07126885552 -0.04021250341 -4.349224888e-23)
(-0.05782018894 -0.04402046539 1.932861375e-24)
(-0.04278583032 -0.04294829537 4.217175172e-23)
(-0.02775450402 -0.03683347053 -3.841634611e-25)
(-0.01455062392 -0.02652721031 0)
(-0.004859463033 -0.01408454486 5.436535681e-23)
(-0.0003641486915 -0.00284695296 -2.565092365e-22)
(-0.0005272211408 0.0149992781 9.841622719e-23)
(-0.009377925734 0.03739022547 -4.907863495e-25)
(-0.02288182866 0.05170223345 0)
(-0.03883043666 0.05894183479 0)
(-0.05538656965 0.06025574948 -8.732170814e-23)
(-0.07142876916 0.05661901336 -8.499131132e-23)
(-0.08606654447 0.04880168992 -4.067595881e-23)
(-0.09855086341 0.03743980677 -1.504391476e-23)
(-0.1081945349 0.02315984062 -5.369001974e-24)
(-0.1143444768 0.006709679517 -8.175044537e-24)
(-0.1164046245 -0.01093292207 6.601189446e-24)
(-0.1138937431 -0.02848945168 8.826845618e-24)
(-0.1065487003 -0.04437046439 -1.892320336e-23)
(-0.09446804208 -0.05675333985 4.608349666e-24)
(-0.07826857003 -0.06378298898 0)
(-0.05922895506 -0.06393495636 -1.572826776e-23)
(-0.03933981956 -0.05653816449 -2.430600495e-26)
(-0.02114188856 -0.0423580922 0)
(-0.007318703058 -0.02398229448 -1.520660297e-22)
(-0.000521616612 -0.005925544909 6.056298601e-22)
(-0.000499082167 0.0206457464 -9.774573558e-23)
(-0.01052951028 0.05045438403 2.831993239e-22)
(-0.02582957564 0.06912512051 1.526867086e-22)
(-0.04402138482 0.07849258306 3.61930295e-24)
(-0.0631073939 0.08029476791 -7.319369363e-23)
(-0.08190405325 0.07588043227 9.043589913e-23)
(-0.09947763942 0.06621690921 -3.590230588e-24)
(-0.1150227406 0.05201695206 -1.729177363e-24)
(-0.1277519212 0.03392358564 2.524171722e-24)
(-0.1368472636 0.01270233209 7.382675876e-24)
(-0.1414710556 -0.01058782366 -6.500932691e-24)
(-0.1408248213 -0.0344602448 -9.788283384e-24)
(-0.1342745994 -0.05692771893 -3.261730147e-23)
(-0.121545026 -0.07553316458 -3.661603573e-23)
(-0.1029672672 -0.08754260824 5.646184393e-25)
(-0.07976370005 -0.09039209908 0)
(-0.05426682548 -0.08244513935 0)
(-0.02987160976 -0.06397736984 -2.906086091e-24)
(-0.01066285159 -0.03798794785 2.970535791e-24)
(-0.0007350936639 -0.01050089509 1.027872959e-22)
(-0.000447916467 0.02687251235 0)
(-0.01134923266 0.06480757767 2.001982534e-22)
(-0.02801599778 0.08829617577 8.962045533e-23)
(-0.047998575 0.1001234984 0)
(-0.06920602199 0.1027076591 1.569891612e-22)
(-0.0904437344 0.09781578968 0)
(-0.1107831709 0.08661103311 -1.428393009e-22)
(-0.1294093797 0.06983950551 6.515582296e-24)
(-0.1454771674 0.04808232306 0)
(-0.1580351855 0.02201755609 0)
(-0.1660133498 -0.007334440078 -1.374416955e-24)
(-0.1682671598 -0.03838839837 -9.316848066e-25)
(-0.1637064734 -0.06883976035 1.491988819e-22)
(-0.1515208793 -0.09558275995 -4.704627398e-23)
(-0.131513458 -0.1148298686 -2.561000446e-24)
(-0.1045596094 -0.1225703438 1.534755595e-24)
(-0.07309350003 -0.115551799 -1.558965264e-24)
(-0.04135021545 -0.09283115748 0)
(-0.01525230292 -0.05740767745 3.203825476e-24)
(-0.001044309041 -0.01714714513 -1.012917537e-21)
(-0.0003744664936 0.03346304619 0)
(-0.0117500609 0.07998918988 -1.128296277e-22)
(-0.02920707994 0.1086390979 -6.191165328e-22)
(-0.0503174514 0.123223403 -3.755315261e-22)
(-0.07296317609 0.1269097073 0)
(-0.09598960406 0.1219255674 4.119466699e-22)
(-0.1185273509 0.1096348671 1.260929119e-22)
(-0.1398146452 0.09078246068 -5.581847717e-24)
(-0.1590221589 0.06581393277 5.554220571e-24)
(-0.1751461047 0.03520881134 0)
(-0.186956003 -0.0001967474796 2.912135194e-23)
(-0.1930172694 -0.0388975444 4.695852322e-24)
(-0.1917809956 -0.07843888703 -1.076813453e-22)
(-0.1817874474 -0.1151865402 8.004257716e-23)
(-0.1620570466 -0.1442599494 -2.419755282e-22)
(-0.1327062024 -0.159854866 0)
(-0.09577888316 -0.1563112916 0)
(-0.05601633139 -0.1302981107 0)
(-0.02147859161 -0.08381135248 0)
(-0.001500384577 -0.02665516341 5.572133792e-22)
(-0.0002873899985 0.04016077848 0)
(-0.01169359644 0.09543611793 -3.493024346e-22)
(-0.02924438329 0.1294073665 8.932816823e-22)
(-0.05060947346 0.146929921 3.617187308e-22)
(-0.07370082728 0.1519748713 0)
(-0.09745151232 0.1472757996 -3.862563919e-22)
(-0.121106985 0.1344191977 -3.174436248e-23)
(-0.1440324803 0.1141393337 3.33311e-22)
(-0.1655143258 0.08670006722 1.769477064e-22)
(-0.1846248548 0.05229123527 -4.060156523e-23)
(-0.200132584 0.01141716153 1.656821838e-23)
(-0.2104622472 -0.03471424256 -8.265260919e-24)
(-0.2137208556 -0.08376563788 3.371862705e-22)
(-0.2078215524 -0.1318756373 0)
(-0.1908238557 -0.1732756167 2.420924313e-22)
(-0.1616335755 -0.2002593427 5.774804023e-24)
(-0.1211662703 -0.204012174 -5.860923436e-24)
(-0.07384989872 -0.1772119982 1.548456911e-22)
(-0.02971786855 -0.1188642343 -5.435487978e-24)
(-0.002179545138 -0.04005398793 0)
(-0.0002117199412 0.04671640122 0)
(-0.01125001095 0.1105498154 0)
(-0.02815624467 0.1497355041 -5.02276564e-22)
(-0.04874479311 0.1701517646 -1.881000713e-23)
(-0.07100086639 0.1766257189 2.038381552e-23)
(-0.09399451494 0.1724526548 -2.014314016e-23)
(-0.11714343 0.1594871015 -2.31688668e-23)
(-0.1400179504 0.13848051 -3.029828074e-22)
(-0.1621328891 0.1095160723 6.698615736e-23)
(-0.1827959038 0.0724518697 4.513183002e-23)
(-0.2009835559 0.02734928787 -4.577725569e-23)
(-0.2152270267 -0.02508697873 0)
(-0.2235562218 -0.08298351528 -7.839703297e-23)
(-0.2234632204 -0.1427257354 0)
(-0.212067944 -0.1981820909 -3.739567207e-22)
(-0.1867434558 -0.2400773728 5.244963707e-22)
(-0.1464438312 -0.2560773446 0)
(-0.0939456779 -0.2331209535 -1.494002725e-22)
(-0.04022001022 -0.1639613681 1.937559609e-22)
(-0.003201100287 -0.05861063214 -3.411539209e-22)
(-0.0002015409294 0.05297585212 0)
(-0.01067261875 0.1248172415 9.18287994e-22)
(-0.02628446662 0.1687424618 -2.440688395e-23)
(-0.0450110778 0.1916455183 9.193348845e-22)
(-0.06494597452 0.1992921095 -2.512089426e-23)
(-0.08536628475 0.1956104354 2.838847667e-23)
(-0.1059305642 0.182788687 -2.812933695e-23)
(-0.1264924179 0.1616583525 -1.660919732e-23)
(-0.1468996837 0.1321762305 -5.260234316e-22)
(-0.1668458146 0.09389646599 -8.906636763e-24)
(-0.1857303013 0.04640576202 9.660203686e-24)
(-0.2024781676 -0.01023784889 3.313080193e-22)
(-0.2154154605 -0.07499820521 -5.820744935e-22)
(-0.222020971 -0.1450311862 0)
(-0.2188032101 -0.2146760646 8.88733356e-22)
(-0.2016257525 -0.2740016455 -4.940895766e-22)
(-0.1668639195 -0.3075811991 -1.572226106e-23)
(-0.1140220097 -0.2953811944 0)
(-0.05288482042 -0.2195802602 -1.890193154e-22)
(-0.004749188189 -0.0837727804 3.360596825e-22)
(-0.0003641985595 0.05902317859 1.551011988e-23)
(-0.01049573936 0.1379881524 -8.764207103e-22)
(-0.02441389497 0.1856804135 -1.157060204e-21)
(-0.04026724359 0.210138479 -8.628997148e-22)
(-0.05630729508 0.218234895 0)
(-0.07214856417 0.2146190304 3.51380904e-23)
(-0.08779221458 0.2018791983 -7.294874187e-23)
(-0.1034562773 0.1810005628 5.867890508e-23)
(-0.1193983853 0.1518997249 3.021369694e-22)
(-0.1357931526 0.1139150567 -1.128196719e-23)
(-0.15260823 0.06621424867 0)
(-0.1694521357 0.008177202159 -3.603932494e-22)
(-0.1852760582 -0.06015987854 7.515673686e-22)
(-0.1980448505 -0.137274703 8.831710273e-22)
(-0.2043546255 -0.2189261909 -5.296632543e-22)
(-0.1990977608 -0.2959712937 5.162695001e-22)
(-0.1760605329 -0.3514072616 1.078235902e-23)
(-0.1300890633 -0.3584150811 -1.09555099e-23)
(-0.06688803322 -0.2843276533 -8.215235653e-23)
(-0.00708331997 -0.1169964426 0)
(-0.0009095776619 0.0654004161 -1.911488661e-23)
(-0.01167591703 0.1502816429 -1.326966736e-21)
(-0.02388881999 0.2000659586 1.094238528e-21)
(-0.03601340302 0.2244216999 6.734935192e-22)
(-0.0465730858 0.2316588277 6.014636372e-22)
(-0.05577038294 0.2272393728 6.643962227e-22)
(-0.06411245496 0.2141774903 -4.458681378e-23)
(-0.07227561352 0.1936494399 -3.461339749e-22)
(-0.08096972629 0.1656028325 2.152163939e-22)
(-0.09087191987 0.1292707354 0)
(-0.102554742 0.08353082395 0)
(-0.1163622126 0.02720010607 2.655398379e-22)
(-0.1321589531 -0.04062006147 8.194326543e-23)
(-0.1489252294 -0.1200128322 -2.821625917e-22)
(-0.1641284262 -0.2089300703 -5.411275196e-23)
(-0.1727877606 -0.3006992521 1.301952273e-22)
(-0.1670311297 -0.3793329118 -3.400509837e-22)
(-0.1365292436 -0.4136451987 -1.593802714e-23)
(-0.0801825014 -0.353832622 8.204008443e-23)
(-0.01050762296 -0.1594130577 -6.032152729e-22)
(-0.002260498465 0.0734888354 0)
(-0.01580355638 0.1626521784 2.145876367e-21)
(-0.02665042508 0.2117904757 0)
(-0.03422339483 0.2333947296 -1.351808842e-21)
(-0.03759398333 0.2377766852 6.184051063e-23)
(-0.03799685049 0.2312553547 -6.193099529e-22)
(-0.03668265662 0.217189903 -4.756287431e-22)
(-0.03489036066 0.1968934506 8.301260488e-22)
(-0.03378837616 0.1703342391 -1.885699361e-22)
(-0.0344987614 0.1367221077 0)
(-0.03811572426 0.09479673583 0)
(-0.04564992167 0.04304286517 2.41061517e-23)
(-0.0579080407 -0.02013781306 -6.007201703e-22)
(-0.07514598351 -0.09620650285 -4.309569415e-22)
(-0.09645174833 -0.1855556179 4.637865068e-22)
(-0.1183462605 -0.2853567778 -6.488740531e-22)
(-0.1332715374 -0.3838386542 9.119949892e-23)
(-0.1265350984 -0.4504358723 2.937285308e-23)
(-0.08899154072 -0.4198536385 5.660441177e-22)
(-0.01526917932 -0.2111719737 6.020785485e-22)
(-0.005180899516 0.08598045946 0)
(-0.02525550688 0.1766291197 1.465579513e-22)
(-0.03483407919 0.2205961565 -4.917147289e-23)
(-0.03640013753 0.2354859363 7.642934867e-22)
(-0.03018482885 0.2343406768 -7.00538192e-22)
(-0.01916579228 0.2241603898 4.746483413e-23)
(-0.005615147761 0.2083525857 -1.018610141e-22)
(0.008569610666 0.1881241098 -3.389890573e-22)
(0.02179886483 0.1633911275 2.062823688e-22)
(0.03262781771 0.1333242733 0)
(0.03958458835 0.09664086162 0)
(0.04117013508 0.05174056399 -2.902668931e-22)
(0.03578484049 -0.003255398364 0)
(0.02198184886 -0.07058360895 -5.512189388e-22)
(-0.001264844246 -0.1525735512 -1.492377767e-23)
(-0.03310469727 -0.2505949851 2.559743237e-23)
(-0.06909235695 -0.359934152 2.203146346e-22)
(-0.09227826924 -0.4575424531 4.788066806e-24)
(-0.08718089891 -0.4698129419 -5.789409435e-22)
(-0.02103127146 -0.2698972299 0)
(-0.01111631542 0.1085974971 0)
(-0.04248901839 0.1947151677 -8.848484292e-22)
(-0.04795528874 0.2258195513 -5.411042361e-22)
(-0.03919535848 0.2282135562 4.54381901e-22)
(-0.01877830162 0.2182328143 -1.709983693e-24)
(0.007664315547 0.2028220364 -4.561051897e-23)
(0.03667993593 0.1847619777 5.696684974e-22)
(0.06582998812 0.1647118223 -2.766891672e-23)
(0.09327131139 0.1423128183 -2.06978258e-22)
(0.1173891631 0.1166274941 3.142214783e-23)
(0.1365461709 0.08641143888 -3.425918454e-23)
(0.1489669286 0.05017669007 -3.69059548e-23)
(0.1525275796 0.006159166595 3.205634773e-22)
(0.1449367044 -0.04796127063 6.11960882e-22)
(0.1235159802 -0.1153052912 -5.101174127e-22)
(0.0863353352 -0.2004195651 -1.616060197e-22)
(0.03199089365 -0.3067806592 1.531306111e-22)
(-0.02362123103 -0.4239837146 7.293650894e-23)
(-0.06492413032 -0.4871612791 1.913291388e-21)
(-0.02509971701 -0.3291544745 2.954991207e-21)
(-0.02004680465 0.1460727399 -4.390209238e-23)
(-0.06416406231 0.2112955855 4.417381997e-23)
(-0.05070230537 0.2177300478 1.00018905e-21)
(-0.01934097291 0.2014679986 -8.270534353e-24)
(0.0241446502 0.1809076184 0)
(0.0715412218 0.1606933355 4.363724955e-23)
(0.1190703421 0.14164955 -2.273853238e-22)
(0.1644767349 0.1233181828 -9.027962893e-23)
(0.2062251177 0.1048117298 3.680736725e-23)
(0.2429643041 0.08507140109 -1.701655617e-23)
(0.2732207597 0.0629614768 3.429971764e-23)
(0.2952536125 0.0372629381 -6.592684053e-23)
(0.3066971074 0.006535067937 -9.303908747e-23)
(0.3049738324 -0.03087770074 1.517044977e-22)
(0.2863936259 -0.07786290995 0)
(0.2470568092 -0.1399300371 1.505613448e-22)
(0.1810922242 -0.2266299753 2.560013747e-22)
(0.09604450287 -0.3443894948 0)
(-0.006697615682 -0.4552210219 -3.675634455e-21)
(-0.01922408199 -0.3777537589 -2.892620688e-21)
(-0.02591951333 0.2276828798 -9.514205619e-22)
(-0.03998324633 0.2238216527 -1.388976907e-22)
(0.036561369 0.1810585357 -2.335583064e-22)
(0.1090503049 0.1451059091 -1.193742611e-22)
(0.1817191199 0.1172445498 -4.295829506e-23)
(0.2490090741 0.09627907673 9.783192307e-23)
(0.3100336714 0.08002510463 -1.408593628e-22)
(0.3646209347 0.06656815377 1.297176283e-22)
(0.412625251 0.0544917892 -8.620126056e-23)
(0.4536250316 0.04270894939 1.132189596e-25)
(0.486787874 0.03032298417 1.527742532e-23)
(0.510745138 0.01652901843 7.997208831e-23)
(0.5236597469 0.0005365141458 -1.811124771e-22)
(0.5231798025 -0.01863373274 -1.617147114e-22)
(0.5052323428 -0.04286478978 -4.262959568e-23)
(0.4658715088 -0.07633231199 0)
(0.3952696502 -0.1286089384 -1.846476439e-22)
(0.2916071051 -0.2208468098 8.148762444e-22)
(0.1197455107 -0.3525016903 1.631601426e-21)
(0.02670547262 -0.3775497979 2.172655835e-21)
(0.2142894469 0.1347447207 9.864990688e-22)
(0.2776311186 0.09870503549 0)
(0.431659229 0.05810414815 -2.594322228e-22)
(0.5304749347 0.03846264943 -1.741667982e-22)
(0.6016965753 0.02623419111 0)
(0.6571198964 0.01831923478 -6.009099319e-23)
(0.7015213611 0.01313600853 6.378008725e-23)
(0.737604251 0.009542126395 -1.800158239e-23)
(0.7669368427 0.006804463611 2.885976698e-23)
(0.7902106694 0.004464743841 2.315034775e-23)
(0.8074555018 0.002221319745 0)
(0.8182621361 -0.0001500751128 -2.873034452e-23)
(0.821649972 -0.002723848415 0)
(0.81623942 -0.005712668745 2.738153635e-23)
(0.799133315 -0.009611382878 1.421694418e-23)
(0.7679986346 -0.01500255107 -5.799401265e-23)
(0.7106555756 -0.02502519952 -2.535660367e-22)
(0.6235183981 -0.04204285406 -6.91810099e-22)
(0.4230091021 -0.09182968079 0)
(0.2705674689 -0.1524021841 -2.119483702e-21)
)


// ************************************************************************* //
