/*--------------------------------*- C++ -*----------------------------------*\
  =========                 |
  \\      /  F ield         | OpenFOAM: The Open Source CFD Toolbox
   \\    /   O peration     | Website:  https://openfoam.org
    \\  /    A nd           | Version:  13
     \\/     M anipulation  |
\*---------------------------------------------------------------------------*/
FoamFile
{
    format      ascii;
    class       scalarField;
    location    "48.43";
    object      p_all;
}
// * * * * * * * * * * * * * * * * * * * * * * * * * * * * * * * * * * * * * //


400
(
8.549763897e-09
-0.0005474978566
-0.0008895501832
-0.001017044844
-0.000938185312
-0.0006853251626
-0.000296038261
0.0001936819835
0.0007473111328
0.00132436668
0.001879209348
0.002358978205
0.002708276493
0.002874009571
0.002814647968
0.002512202087
0.001987144121
0.001296611188
0.0006376832681
4.178170442e-05
0.000588160732
6.861719532e-06
-0.0003568778647
-0.0004992147238
-0.0004685692494
-0.0002915050368
2.596826124e-06
0.0003844426186
0.0008226172969
0.001279852314
0.001716304406
0.002080823526
0.002323040732
0.002395590274
0.002264600003
0.00192129575
0.001392425916
0.0007430475585
0.0001453973629
-0.0005172907249
0.0009524163009
0.000308006218
-9.324809772e-05
-0.0002395835096
-0.0002334708944
-0.0001049807115
0.0001218513988
0.0004257372968
0.0007829415537
0.001161452786
0.001529471092
0.001832866025
0.002021710697
0.002047284839
0.001874453019
0.001493396984
0.0009280956975
0.0002351094563
-0.0004633640755
-0.001300340011
0.0009761238531
0.0002579516279
-0.0001922997986
-0.0003445962054
-0.0003538602825
-0.000256884812
-7.430460685e-05
0.0001812903767
0.0004963591497
0.0008506643154
0.001203011072
0.001510481412
0.001712275839
0.001747864079
0.001568378501
0.001150432014
0.0005058453165
-0.0003186437021
-0.001233979595
-0.0023847819
0.0004804630695
-0.0002850276407
-0.0007639375892
-0.0009156422202
-0.0009366682754
-0.000868244253
-0.000725342147
-0.0005084139752
-0.0002171740361
0.0001391320489
0.0005300708021
0.0009073700185
0.001199805281
0.001326490605
0.001211011332
0.0008001701859
7.991766916e-05
-0.0009176839453
-0.002127670944
-0.003656172507
-0.0006863833204
-0.001467168735
-0.001956221525
-0.002107280477
-0.002150062757
-0.002126714284
-0.00204233377
-0.001879713034
-0.001617601238
-0.001245570761
-0.000779158733
-0.0002629024057
0.000220577216
0.0005614488304
0.0006377986789
0.0003414919883
-0.000393068968
-0.001564108528
-0.00313489484
-0.005142133451
-0.002661852726
-0.003423563913
-0.003915430383
-0.004080812189
-0.004178184148
-0.004247240275
-0.004278260073
-0.004229205501
-0.004047602861
-0.003689651855
-0.003140801465
-0.002426806064
-0.001633563547
-0.000903494277
-0.0004248838479
-0.0003987480641
-0.0009882952704
-0.002260636301
-0.004232796953
-0.006828376922
-0.005555052804
-0.006269978685
-0.006768265257
-0.006982213068
-0.007195604732
-0.007443505297
-0.007697213693
-0.007882281119
-0.007902248961
-0.007660692687
-0.007087428308
-0.006159575008
-0.004943829084
-0.00360495128
-0.002414019721
-0.001714600684
-0.001843286233
-0.003015099592
-0.005368534763
-0.008662330581
-0.009435278166
-0.01008161497
-0.01059848474
-0.01091072588
-0.01132613003
-0.0118760161
-0.01251139515
-0.01311977228
-0.01354793421
-0.01362350683
-0.01318263144
-0.01212127776
-0.01042818485
-0.008256718296
-0.005956490972
-0.004062067075
-0.003190330856
-0.003843231017
-0.006426627186
-0.01049181633
-0.01431705023
-0.01487604164
-0.01542303281
-0.01588227859
-0.01659011817
-0.01758025203
-0.01878711515
-0.02005924963
-0.02117773996
-0.02187379667
-0.02185757749
-0.02087246225
-0.0187721221
-0.01562029603
-0.0117952688
-0.008037530205
-0.005360087575
-0.004760345784
-0.007181366935
-0.01197944878
-0.02015456041
-0.02060478838
-0.02117498017
-0.02179698634
-0.02285234379
-0.02439060334
-0.02633947549
-0.02851386516
-0.03062781007
-0.03230374736
-0.03309550613
-0.03254095634
-0.03028273494
-0.02617893434
-0.02052512911
-0.01420415739
-0.008691765354
-0.005726834775
-0.007219481058
-0.01246662857
-0.02685658842
-0.02716234785
-0.0277027858
-0.02842320307
-0.02978940505
-0.03188934635
-0.03465913598
-0.03788990291
-0.04123419151
-0.04420531937
-0.04618839486
-0.04647904401
-0.04446334461
-0.0396602923
-0.03212127745
-0.02269899983
-0.01326680549
-0.006486164611
-0.005808856148
-0.01076545221
-0.03433494849
-0.03441835884
-0.03478969837
-0.03540478181
-0.03689209452
-0.03941025025
-0.04292029838
-0.04719793765
-0.05184033474
-0.05625865159
-0.05968000948
-0.06119117323
-0.05977979692
-0.05465604214
-0.04544131752
-0.03269995719
-0.0184533356
-0.006246142039
-0.001674185389
-0.004873820027
-0.04261009018
-0.04227966272
-0.04219588288
-0.04229620286
-0.04351395005
-0.04611664911
-0.05009987035
-0.05522064618
-0.06101533223
-0.066796446
-0.07164039208
-0.07441329231
-0.07383285166
-0.06867516962
-0.05807223049
-0.04206210147
-0.02244030954
-0.003257476385
0.007346817957
0.008341214032
-0.05201059654
-0.05076125065
-0.04967807344
-0.04857917142
-0.0489270371
-0.05112046856
-0.05517317025
-0.06079652437
-0.06743583642
-0.07429020639
-0.08028308583
-0.08407653956
-0.08413097144
-0.0788378563
-0.06684311721
-0.04752372413
-0.02212775139
0.005501512569
0.02471511523
0.03352715563
-0.06365619686
-0.06018949307
-0.05709763653
-0.05376468573
-0.05246583019
-0.05368050304
-0.05736535492
-0.06313855917
-0.07026303582
-0.07780150123
-0.08449319176
-0.0887864048
-0.0888987229
-0.08283999604
-0.06885107843
-0.04562109905
-0.01375177574
0.02441665735
0.05553941094
0.07735565155
-0.08018675314
-0.0710753082
-0.06412156184
-0.05716586654
-0.05343203024
-0.05321612161
-0.05625988713
-0.0619149199
-0.06926007115
-0.07711806262
-0.08401332679
-0.08815278301
-0.087481213
-0.07965692977
-0.06247977412
-0.03405068511
0.005564706628
0.05859388553
0.1058229257
0.1480676336
-0.110508138
-0.08585544395
-0.07160740798
-0.05897244503
-0.05191485577
-0.0498846142
-0.05210443656
-0.05751060284
-0.064861436
-0.07271032188
-0.07934174078
-0.08271503555
-0.08052075767
-0.06988765649
-0.04823271857
-0.01272275065
0.03823602888
0.1071319978
0.1779785608
0.2564763995
-0.1684383131
-0.09990960703
-0.0750096954
-0.05479932439
-0.04462047703
-0.04158702305
-0.04371966919
-0.04938361318
-0.05701928034
-0.06497285519
-0.07136372329
-0.07398199294
-0.0701307853
-0.05701425857
-0.03102885587
0.01192918826
0.07559937998
0.1664041485
0.2761619272
0.4377041903
-0.3984295929
-0.1381007544
-0.07497186075
-0.04708987727
-0.03355095663
-0.03003177474
-0.03280399519
-0.0392668221
-0.04756062291
-0.05594118108
-0.06250219619
-0.06503126061
-0.06099649237
-0.04697028164
-0.01875706895
0.02993531531
0.1069555725
0.233427162
0.4198801172
0.7800232989
)


// ************************************************************************* //
