/*--------------------------------*- C++ -*----------------------------------*\
  =========                 |
  \\      /  F ield         | OpenFOAM: The Open Source CFD Toolbox
   \\    /   O peration     | Website:  https://openfoam.org
    \\  /    A nd           | Version:  13
     \\/     M anipulation  |
\*---------------------------------------------------------------------------*/
FoamFile
{
    format      ascii;
    class       scalarField;
    location    "26";
    object      p_all;
}
// * * * * * * * * * * * * * * * * * * * * * * * * * * * * * * * * * * * * * //


400
(
-5.686324648e-09
-0.000509218586
-0.001124584044
-0.00159263713
-0.00179640068
-0.001688618445
-0.00124737502
-0.0004645557791
0.0006485107899
0.002047119172
0.003639202579
0.005279354979
0.006778981135
0.00793599549
0.008582396217
0.00863826251
0.008154073777
0.007325636573
0.006470327357
0.005930268874
0.0005152901736
-1.14402114e-05
-0.0005515234542
-0.0009230777234
-0.001070728758
-0.0009688084951
-0.0005988074705
5.13069541e-05
0.0009790738708
0.002153947579
0.003503516825
0.004906898182
0.006201580716
0.007209913599
0.007782104164
0.007845690183
0.007442498041
0.006734642659
0.005972622673
0.005422300124
0.001154637038
0.0004922958126
-7.852063012e-05
-0.0004184690942
-0.0005517676565
-0.0004856922306
-0.0002078335602
0.0003008201655
0.001052879834
0.002038115675
0.003206449995
0.004457098081
0.005641497075
0.00658629354
0.007135986374
0.007204555022
0.006814335995
0.00609691364
0.005251210385
0.004533040803
0.001608383034
0.0007531612958
7.139378998e-05
-0.0003098220527
-0.0004862211841
-0.0004969946818
-0.0003340612116
3.267252901e-05
0.0006365457061
0.001492685376
0.002574887909
0.003797765399
0.00501317488
0.006029797065
0.00665787054
0.006769663738
0.00635038861
0.00550504953
0.004416402555
0.003403388772
0.001633741221
0.0005821734226
-0.0002364557786
-0.0007004613182
-0.0009664633957
-0.001098577361
-0.001087502808
-0.0008863865633
-0.0004347961564
0.0003145782199
0.001365533435
0.002651432584
0.00402132688
0.005253078953
0.006098603312
0.006356769342
0.005946519017
0.004934647114
0.003508159976
0.002106142467
0.001030661398
-0.0001976985286
-0.00115584767
-0.001730088595
-0.002129247492
-0.002435021007
-0.002630973998
-0.002647526008
-0.002389692084
-0.001767892212
-0.000735698918
0.0006726494797
0.002311598111
0.003925011031
0.00518488994
0.005776676126
0.005504905218
0.004361854154
0.002537522753
0.000649072307
-0.0003703923117
-0.001745763461
-0.002838303293
-0.003547625241
-0.00412775597
-0.004672470128
-0.005154155849
-0.005475811325
-0.005500083507
-0.005081688631
-0.004110928507
-0.002566759491
-0.0005630685378
0.001620741035
0.003561927165
0.004784337107
0.004903838585
0.003763018388
0.001518540537
-0.0009678225239
-0.002703066512
-0.004189523488
-0.005407910499
-0.006277211525
-0.007091350777
-0.00795373616
-0.008824956603
-0.009578834119
-0.01002933231
-0.00996087735
-0.009174916353
-0.007554927484
-0.005142102222
-0.002203583749
0.0007478774823
0.003027970195
0.003961797664
0.003110292497
0.0004983965718
-0.002700378071
-0.006054486725
-0.007611396568
-0.008942282134
-0.009991414051
-0.01109001455
-0.01235298477
-0.01373316326
-0.01507797714
-0.01615030585
-0.016651854
-0.01626741034
-0.01473918429
-0.01197203722
-0.008153929019
-0.003845176172
4.015595646e-05
0.002420157945
0.002373244568
-0.000407030069
-0.004400344547
-0.01045587794
-0.01203824019
-0.01345664454
-0.01468584155
-0.01609710588
-0.0178246958
-0.01982316534
-0.02192167286
-0.02383556822
-0.02517808819
-0.02549561712
-0.02434364982
-0.02141766252
-0.01672736056
-0.01078410946
-0.004692555019
-3.2035603e-05
0.001535877514
-0.0009647276583
-0.005729924046
-0.0158816252
-0.01743882969
-0.01889447954
-0.02025842389
-0.02195557761
-0.02415592868
-0.02683042976
-0.02980233894
-0.03274873598
-0.03519770593
-0.03654859781
-0.03613928963
-0.03339145408
-0.02802290345
-0.02034707028
-0.01152656407
-0.003637132761
0.0006637534492
-0.0007477324121
-0.006031192552
-0.02226600324
-0.02373634894
-0.02513048524
-0.02650031558
-0.02835883474
-0.03093999496
-0.03424928093
-0.03811668884
-0.04219182127
-0.04592753943
-0.04858310683
-0.04927530173
-0.04710570019
-0.04141765661
-0.03215475071
-0.02031063246
-0.008300734856
7.58089064e-05
0.001000576419
-0.004128159632
-0.02954980268
-0.03084258605
-0.03198875928
-0.03310226834
-0.03485538337
-0.03758871777
-0.04135907256
-0.04600870727
-0.05116376656
-0.05620996078
-0.06027995404
-0.06228336411
-0.06101559432
-0.05539680436
-0.04487035755
-0.02999714623
-0.01320695546
0.0006499024449
0.005605252036
0.00195944609
-0.03777982022
-0.03872043373
-0.03927261097
-0.03967289931
-0.040879112
-0.04339076612
-0.04732013153
-0.05250936303
-0.05854783981
-0.06474846464
-0.07012467822
-0.07340163479
-0.07309998426
-0.06773944721
-0.05621924172
-0.03846455403
-0.01650154988
0.004174260361
0.01530166056
0.01537886186
-0.04731055208
-0.04748602513
-0.0467982137
-0.04576108249
-0.04580208851
-0.04761182526
-0.05132615953
-0.05674384577
-0.06337797978
-0.07044040869
-0.0768127989
-0.08104329273
-0.08140770772
-0.07607826816
-0.06345729277
-0.04277626547
-0.01529928138
0.01351442195
0.03348597881
0.0406682027
-0.05915092906
-0.05757860687
-0.05444121222
-0.05089433465
-0.04902114577
-0.04963276953
-0.05278323478
-0.05814346154
-0.06508219995
-0.07266023626
-0.07959216032
-0.08423087585
-0.08460968499
-0.07858415119
-0.0641298436
-0.03985564699
-0.006104257882
0.03245088722
0.06457877057
0.08330663283
-0.07555112012
-0.07007563372
-0.06217408247
-0.05461547448
-0.05005180778
-0.0490721538
-0.05143488515
-0.05655505951
-0.06357533588
-0.07134447589
-0.07836793496
-0.08277183518
-0.08232207548
-0.07453180033
-0.05693475137
-0.02753990862
0.01426455389
0.0652416497
0.1141696852
0.1499355126
-0.1036350967
-0.08748886203
-0.06971074527
-0.05613469526
-0.04825619312
-0.04554084005
-0.04712749574
-0.0520215118
-0.05904750341
-0.06680546327
-0.07358192464
-0.07727003751
-0.07535945304
-0.06496639197
-0.0430323345
-0.006664714082
0.04615911009
0.1148017246
0.1910526431
0.2578490291
-0.1755511866
-0.114537719
-0.07348953506
-0.05190089311
-0.04121101138
-0.03748372401
-0.03897124011
-0.04417360442
-0.05154339785
-0.05946962425
-0.06611285658
-0.06921234544
-0.06606329226
-0.05344046617
-0.02758159362
0.01588991655
0.08202591887
0.1766374021
0.3046505855
0.4521603876
-0.3554258129
-0.1549125312
-0.07027147864
-0.04277233517
-0.0313694218
-0.02751718924
-0.02950366357
-0.03546781196
-0.04352301087
-0.05191655402
-0.05877056164
-0.06183157681
-0.05835744276
-0.04499030436
-0.01737182305
0.03042884761
0.1078817171
0.2327657122
0.4342230159
0.7353412635
)


// ************************************************************************* //
