/*--------------------------------*- C++ -*----------------------------------*\
  =========                 |
  \\      /  F ield         | OpenFOAM: The Open Source CFD Toolbox
   \\    /   O peration     | Website:  https://openfoam.org
    \\  /    A nd           | Version:  13
     \\/     M anipulation  |
\*---------------------------------------------------------------------------*/
FoamFile
{
    format      ascii;
    class       surfaceScalarField;
    location    "26";
    object      phi;
}
// * * * * * * * * * * * * * * * * * * * * * * * * * * * * * * * * * * * * * //

dimensions      [0 3 -1 0 0 0 0];

internalField   nonuniform List<scalar> 
760
(
-1.322357387e-05
1.321369334e-05
-7.201863573e-05
5.87950744e-05
-0.000162069593
9.005096087e-05
-0.0002652158432
0.0001031461504
-0.0003682320121
0.0001030160936
-0.0004614909021
9.325900965e-05
-0.0005377343425
7.624372578e-05
-0.0005912252471
5.349112296e-05
-0.0006174924778
2.626716872e-05
-0.0006135737835
-3.919016608e-06
-0.000578446833
-3.512729544e-05
-0.000513832773
-6.461421519e-05
-0.0004246530125
-8.917966109e-05
-0.0003192787558
-0.0001053740181
-0.0002092253825
-0.0001100531791
-0.0001081406884
-0.0001010846423
-2.992801903e-05
-7.821272189e-05
1.414665521e-05
-4.407473259e-05
2.190808782e-05
-7.76144106e-06
2.190810464e-05
-6.87034464e-05
8.19171379e-05
-0.0002457695854
0.0002358612363
-0.0004934579144
0.0003377394718
-0.0007722522452
0.0003819406128
-0.001050374018
0.0003811377174
-0.001302962626
0.0003458472397
-0.001510554854
0.0002838356721
-0.001657819724
0.0002007561024
-0.001733147093
0.0001015950113
-0.001729255759
-7.809836086e-06
-0.001643787217
-0.0001205955669
-0.001481377873
-0.0002270236337
-0.001254355058
-0.0003162027507
-0.0009832776167
-0.0003764516881
-0.0006961328903
-0.0003971979523
-0.000425729263
-0.0003714881777
-0.0002049949213
-0.0002989469565
-5.981496051e-05
-0.0001892546366
-4.935947733e-07
-6.708277972e-05
2.141450363e-05
-0.0001229306356
0.0002048477708
-0.000414958251
0.0005278887046
-0.000808639339
0.0007314205644
-0.001247119978
0.0008204214913
-0.001684600746
0.0008186187814
-0.002084356324
0.0007456029043
-0.002416882253
0.0006163613753
-0.002658487743
0.0004423612225
-0.002790902604
0.0002340096351
-0.002802328227
3.615802116e-06
-0.002687824985
-0.0002350985967
-0.002452895968
-0.0004619524087
-0.002114119817
-0.0006549787901
-0.001700336826
-0.0007902347144
-0.00125179858
-0.0008457362777
-0.0008167322544
-0.0008065545325
-0.0004446188202
-0.0006710603602
-0.0001762317388
-0.0004576416704
-3.221269365e-05
-0.0002111017812
-1.079818955e-05
-0.000172071989
0.0003769198656
-0.0005725390716
0.0009283557033
-0.001105925951
0.001264807224
-0.001697972838
0.001412468269
-0.002290512658
0.001411158727
-0.002837152248
0.001292242779
-0.003300101916
0.001079311275
-0.003648169007
0.000790428342
-0.003856214108
0.0004420545943
-0.003905695676
5.309721526e-05
-0.003787636606
-0.0003531577417
-0.003503927594
-0.0007456613591
-0.003071192264
-0.001087713996
-0.002522569337
-0.001338857554
-0.00190795323
-0.001460352368
-0.001290879204
-0.001423628576
-0.0007407409138
-0.001221198654
-0.0003202661475
-0.0008781164165
-7.110156352e-05
-0.000460266327
-8.189974189e-05
-0.0002170137715
0.0005939337134
-0.0007188056989
0.001430147825
-0.001385603495
0.001931604993
-0.002127044936
0.002153909532
-0.002874270518
0.002158384137
-0.003573070198
0.001991042438
-0.00417883775
0.001685078965
-0.004653432501
0.001265023266
-0.004964043145
0.000752665327
-0.005083865014
0.000172919068
-0.004994880298
-0.0004421425361
-0.00469106086
-0.00104948085
-0.004183409191
-0.001595365647
-0.003504302847
-0.002017963832
-0.002710386131
-0.002254269024
-0.001881535756
-0.002252478923
-0.00111320958
-0.001989524822
-0.0005008110825
-0.001490514906
-0.0001191399349
-0.0008419374508
-0.0002010396604
-0.0002573573462
0.0008512909496
-0.0008513089623
0.002024099611
-0.001642238268
0.00272253448
-0.002526469501
0.003038140828
-0.003426785414
0.003058699976
-0.004283248766
0.002847505669
-0.005046055804
0.002447885947
-0.005670846483
0.001889813993
-0.006116573987
0.001198392932
-0.006345805649
0.0004021508203
-0.006327675071
-0.0004602730834
-0.006042322199
-0.00133483374
-0.005488189312
-0.002149498552
-0.004689871327
-0.002816281802
-0.003705643077
-0.003238497232
-0.002631125183
-0.003326996772
-0.001594192628
-0.003026457346
-0.0007363717051
-0.002348335814
-0.0001821168422
-0.001396192297
-0.0003831564867
-0.0002911745825
0.001142465421
-0.0009640940121
0.002697018971
-0.001864104363
0.003622544913
-0.002878056066
0.004052092667
-0.003923346086
0.004103990085
-0.004936857716
0.003861017299
-0.005865724663
0.00337675284
-0.006660823618
0.00268491291
-0.007273253574
0.0018108229
-0.007653786201
0.0007826835062
-0.007755624312
-0.0003584349055
-0.007539619181
-0.00155083883
-0.006983876275
-0.002705241446
-0.006095686293
-0.003704471777
-0.004925603186
-0.004408580317
-0.003579407775
-0.004673192147
-0.002220343987
-0.004385521094
-0.001050824767
-0.003517855005
-0.0002684623459
-0.0021785547
-0.0006516188183
-0.000315956978
0.001458422457
-0.001048709227
0.003429771112
-0.002034477342
0.00460831297
-0.003154821145
0.005172436499
-0.004325023096
0.005274192124
-0.005481714977
0.00501770926
-0.006571778108
0.004466816006
-0.007543952519
0.003657087319
-0.008343634125
0.002610504497
-0.008910950504
0.001349999899
-0.009182629472
-8.675589631e-05
-0.009096844756
-0.001636623496
-0.008604430595
-0.003197655566
-0.00768406513
-0.004624837216
-0.006363959141
-0.005728686284
-0.004745962326
-0.006291188934
-0.003022830414
-0.006108652971
-0.001469555747
-0.005071129636
-0.0003882375479
-0.003259872873
-0.001039856351
-0.0003291891386
0.001787611704
-0.001096420931
0.004197002931
-0.002135036356
0.005646928351
-0.003325301583
0.00636270169
-0.004583561781
0.006532452334
-0.00584926302
0.006283410555
-0.007072447953
0.005690001003
-0.008203685533
0.004788324947
-0.009187111465
0.003593930457
-0.009956743579
0.002119632032
-0.01043592018
0.0003924207265
-0.01054210534
-0.001530438289
-0.01019489944
-0.003544861423
-0.00933396684
-0.005485769776
-0.007946524738
-0.007116128352
-0.006105845425
-0.008131868218
-0.00401287535
-0.008201623013
-0.002014564387
-0.007069440563
-0.0005527939225
-0.004721643305
-0.001592650255
-0.0003297895631
0.002117401288
-0.00110168911
0.004968902579
-0.002151396771
0.006696636051
-0.003361035316
0.007572340229
-0.004650787153
0.007822204162
-0.005965884419
0.007598507836
-0.007263295906
0.006987412531
-0.008500474809
0.006025503905
-0.009626916199
0.004720371903
-0.01057850529
0.003071221167
-0.01127449783
0.001088413307
-0.01161805261
-0.001186883473
-0.01150153537
-0.003661378618
-0.01082043681
-0.006166868294
-0.009502919728
-0.008433645393
-0.007560539873
-0.01007424804
-0.005160822695
-0.01060134016
-0.002696086935
-0.009534176288
-0.0007741413186
-0.006643588889
-0.002366791551
-0.000319935428
0.002437336677
-0.001066685571
0.005715652782
-0.0020804183
0.007710368847
-0.003246802646
0.008738724616
-0.004492289391
0.009067690924
-0.00577084931
0.00887706777
-0.007050288704
0.008266851952
-0.008300513538
0.007275728778
-0.009484273965
0.005904132388
-0.01054993563
0.00413688289
-0.01142559426
0.001964072001
-0.01201414461
-0.0005983330767
-0.01219376361
-0.00348175958
-0.01182093283
-0.006539699031
-0.01075533796
-0.009499240209
-0.008913708711
-0.01191587725
-0.006370821147
-0.01314422768
-0.003498940986
-0.01240605641
-0.001063142672
-0.00907938717
-0.003429934202
-0.0003074139246
0.002744750591
-0.001006598896
0.006414837759
-0.001938372273
0.008642142272
-0.002991920968
0.009792273366
-0.004102839207
0.0101786092
-0.00523747868
0.01001170728
-0.006378662477
0.009408035783
-0.007514123871
0.008411190202
-0.00862737752
0.00701738608
-0.009689894426
0.00519939986
-0.01065319427
0.002927371913
-0.01143761783
0.0001860905471
-0.01192949842
-0.002989878944
-0.01196501997
-0.006504177435
-0.01134375248
-0.01012050766
-0.009868965573
-0.01339066411
-0.007460101444
-0.01555309177
-0.004363820347
-0.01550233748
-0.001425528753
-0.01201767873
-0.004855462936
-0.0003089365628
0.003053687193
-0.000955591078
0.007061492279
-0.00176853032
0.009455081542
-0.002639446384
0.01066318948
-0.003518331919
0.01105749478
-0.004389805335
0.01088318073
-0.00525681379
0.01027504429
-0.006129620008
0.009283996458
-0.007017821774
0.007905587879
-0.007923447755
0.006105025888
-0.008832336734
0.003836260956
-0.009704334265
0.001058088145
-0.01045083625
-0.0022433769
-0.01092421285
-0.00603080079
-0.01089509788
-0.0101496226
-0.01006493072
-0.01422083123
-0.008157323188
-0.01746069927
-0.005167632498
-0.01849202813
-0.001854345757
-0.01533096544
-0.006709808678
-0.0003552815444
0.003408968791
-0.0009733673573
0.007679578122
-0.001646117775
0.01012783199
-0.002268796228
0.01128586799
-0.002816948916
0.01160564751
-0.003303822473
0.0113700543
-0.003759555374
0.01073077724
-0.004221083315
0.009745524454
-0.00472631482
0.008410819428
-0.005309935681
0.006688646789
-0.005996829916
0.00452315524
-0.006791966277
0.00185322456
-0.007660742175
-0.00137460095
-0.008503167511
-0.005188375411
-0.009113290697
-0.009539499374
-0.00914258909
-0.0141915328
-0.008128448194
-0.01847484014
-0.00571117478
-0.02090930151
-0.002318286686
-0.0187238535
-0.009028095354
-0.0005003906001
0.003909359432
-0.001151338048
0.008330525604
-0.001674896056
0.01065139001
-0.001981748669
0.01159272067
-0.002095810693
0.01171970963
-0.002075898613
0.01135014223
-0.001988658355
0.01064353699
-0.001901345268
0.009658211399
-0.001879127311
0.008388601519
-0.001986171868
0.006795691398
-0.002282663228
0.004819646649
-0.002818942944
0.002389504322
-0.003622326215
-0.000571217637
-0.004668998667
-0.004141702924
-0.005834767005
-0.008373731007
-0.006807766073
-0.01321853371
-0.007016736957
-0.01826586923
-0.005716434154
-0.02220960429
-0.002739574783
-0.02170071285
-0.01176767013
-0.0008308992294
0.004740258683
-0.001604876587
0.009104502979
-0.001951060242
0.01099757362
-0.001839501517
0.01148116196
-0.001385587524
0.0112657958
-0.0007183116896
0.01068286649
4.801319222e-05
0.009877212125
0.0008161958982
0.008890028686
0.001495150151
0.007709647281
0.00199821876
0.006292622824
0.002238322536
0.004579542919
0.002128174196
0.002499652706
0.001582994252
-2.603766156e-05
0.0005448842615
-0.003103592907
-0.0009844409778
-0.00684440575
-0.002828503957
-0.01137447071
-0.004459200917
-0.01663517225
-0.004810530068
-0.02185827513
-0.002944303034
-0.02356693986
-0.01471197316
-0.001465693654
0.006205952328
-0.002379914097
0.01001872345
-0.00237351747
0.01099117693
-0.001603651805
0.0107112962
-0.0003497705794
0.01001191468
0.001163471007
0.00916962505
0.002771652438
0.008269030784
0.004349335311
0.007312345844
0.005791425198
0.006267557409
0.006997824482
0.005086223563
0.007865316585
0.003712050849
0.008282125494
0.002082843833
0.008123683269
0.0001324045986
0.007264376512
-0.002244286128
0.005585111737
-0.005165140961
0.003073792048
-0.008863151015
7.89187209e-05
-0.01364029893
-0.002445783252
-0.01933357313
-0.002601090811
-0.0234116323
-0.01731306397
-0.002365508483
0.008571460756
-0.002963829105
0.01061704407
-0.001922860697
0.009950208518
8.103762247e-05
0.008707397945
0.002534779057
0.007558173277
0.005140121493
0.00656428267
0.007719600561
0.005689551776
0.01015445828
0.004877488169
0.01234940914
0.004072606574
0.01421184504
0.003223787689
0.01564039667
0.002283499249
0.01651746384
0.001205776689
0.01669699175
-4.712328588e-05
0.0160270381
-0.001574332467
0.01430501938
-0.00344312223
0.01133277501
-0.005890906636
0.007055569413
-0.009363093332
0.002201596192
-0.01447959991
-0.001027332503
-0.0201827036
-0.01834039647
-0.002150340098
0.01072180083
-7.199382886e-05
0.008538699461
0.003741886153
0.006136326692
0.007719741185
0.004729543079
0.01156181604
0.003716098541
0.01514093297
0.002985165807
0.01839876028
0.002431724504
0.02130144785
0.001974800632
0.02381232198
0.001561732473
0.02587962662
0.001156483073
0.02743047063
0.0007326552709
0.02836464396
0.000271603391
0.02857555171
-0.0002580310193
0.02788761569
-0.0008863964302
0.02609930589
-0.001654812424
0.02290824075
-0.002699841493
0.01790694815
-0.004361800729
0.01076689576
-0.007339547524
0.002912174994
-0.01232798283
-0.01542822148
0.01072180073
0.01926050022
0.02539682693
0.03012637005
0.03384246865
0.03682763449
0.039259359
0.04123415964
0.04279589212
0.04395237521
0.0446850305
0.0449566339
0.04469860289
0.04381220646
0.04215739404
0.03945755255
0.03509575182
0.0277562043
0.01542822148
)
;

boundaryField
{
    movingWall
    {
        type            calculated;
        value           uniform 0;
    }
    fixedWalls
    {
        type            calculated;
        value           uniform 0;
    }
    frontAndBack
    {
        type            empty;
    }
}


// ************************************************************************* //
