/*--------------------------------*- C++ -*----------------------------------*\
  =========                 |
  \\      /  F ield         | OpenFOAM: The Open Source CFD Toolbox
   \\    /   O peration     | Website:  https://openfoam.org
    \\  /    A nd           | Version:  13
     \\/     M anipulation  |
\*---------------------------------------------------------------------------*/
FoamFile
{
    format      ascii;
    class       surfaceScalarField;
    location    "26";
    object      phi_0;
}
// * * * * * * * * * * * * * * * * * * * * * * * * * * * * * * * * * * * * * //

dimensions      [0 3 -1 0 0 0 0];

internalField   nonuniform List<scalar> 
760
(
3.734018963e-06
-3.733042723e-06
-3.887770587e-05
4.261150968e-05
-0.0001289207253
9.004264193e-05
-0.000250997364
0.0001220756306
-0.0003896736161
0.0001386745725
-0.0005319644586
0.0001422900344
-0.0006664111548
0.0001344464521
-0.0007817758875
0.0001153649422
-0.0008664807349
8.470762264e-05
-0.0009092290884
4.275126349e-05
-0.0009007726048
-8.454540177e-06
-0.0008365146264
-6.425697403e-05
-0.0007191920519
-0.0001173222495
-0.0005607302272
-0.0001584623783
-0.000382167074
-0.0001785628412
-0.0002108662327
-0.0001712993707
-7.4962838e-05
-0.0001359028224
4.15346134e-06
-7.911721979e-05
2.107130494e-05
-1.691928761e-05
2.107050339e-05
-4.606692155e-05
4.233388278e-05
-0.0002030327488
0.0001995764755
-0.0004582166475
0.0003452250678
-0.0007799960978
0.0004438548743
-0.001135225922
0.0004939013929
-0.001493446016
0.00050050744
-0.001826279244
0.0004672823059
-0.002106043324
0.0003951341939
-0.002305576823
0.0002842484823
-0.00240009589
0.0001372762416
-0.002370972576
-3.757486085e-05
-0.002210635626
-0.0002245958363
-0.001927438755
-0.0004005197088
-0.001548669616
-0.0005372287759
-0.001120006334
-0.0006072242059
-0.0006998897324
-0.0005914169444
-0.0003484334907
-0.0004873609273
-0.0001121771326
-0.0003153754191
-7.341585139e-06
-0.000121758927
1.372808155e-05
-0.0001078122102
0.0001501459268
-0.0003909450022
0.0004827088996
-0.0008049385967
0.0007592176867
-0.00130256125
0.0009414726763
-0.001838558188
0.00102989741
-0.002371031816
0.001032981769
-0.002860293783
0.0009565487866
-0.003267689645
0.0008025370424
-0.003556018119
0.0005725830186
-0.00369217752
0.0002734363974
-0.003651806542
-7.794527819e-05
-0.003425109845
-0.0004512923056
-0.003022607095
-0.0008030221419
-0.002479106995
-0.001080728203
-0.001853848829
-0.001232481589
-0.001224641613
-0.001220622691
-0.0006746771219
-0.001037324924
-0.0002730682
-0.0007169878406
-5.37488268e-05
-0.0003410805087
-4.002077945e-05
-0.000166373587
0.0003165196667
-0.000571061428
0.0008873953672
-0.001134975386
0.001323134642
-0.001792881894
0.001599378146
-0.002488915092
0.00172593098
-0.003173333088
0.001717399287
-0.003799440694
0.001582658323
-0.004321812321
0.001324913213
-0.004696650944
0.0009474243001
-0.004884498437
0.0004612806158
-0.004854990051
-0.0001074567831
-0.004593043355
-0.0007132390074
-0.004105640768
-0.001290422084
-0.003427754728
-0.001758611946
-0.002625194342
-0.002035040609
-0.001791104523
-0.00205471084
-0.001032898987
-0.001795530308
-0.0004491713818
-0.001300714956
-0.0001024575431
-0.0006877930888
-0.0001424787051
-0.0002186330429
0.0005351539961
-0.0007336274887
0.001402392019
-0.001434016252
0.002023524284
-0.002237023423
0.002402382806
-0.003077533387
0.002566439557
-0.003900575412
0.002540441603
-0.004655722464
0.002337806081
-0.005293920868
0.001963111177
-0.005766972548
0.001420472418
-0.006029516596
0.0007238211516
-0.006043277682
-9.369448957e-05
-0.005783277796
-0.0009732355955
-0.005246083581
-0.001827613671
-0.004458871005
-0.002545822864
-0.003487268069
-0.003006640144
-0.002437257697
-0.003104717393
-0.001444874649
-0.002787913977
-0.0006494735887
-0.002096113936
-0.0001555109312
-0.001181756826
-0.0002979911593
-0.0002631963138
0.00079835117
-0.0008732371815
0.0020124345
-0.001692271824
0.00284255835
-0.002622489353
0.003332598937
-0.003591584942
0.003535532765
-0.00454182275
0.003490677889
-0.005421863342
0.003217843983
-0.00618169855
0.002722944609
-0.006770567321
0.002009337774
-0.00713746537
0.001090717831
-0.007234322733
3.166190179e-06
-0.007021595219
-0.001185959836
-0.006478243956
-0.002370964456
-0.005614457002
-0.003409610872
-0.004486585898
-0.0041345094
-0.003208116884
-0.004383184334
-0.001946674256
-0.004049358989
-0.0008957507356
-0.003147038853
-0.0002204250338
-0.001857086829
-0.0005184178992
-0.0002985406831
0.001096892878
-0.000984623569
0.002698517767
-0.00189965764
0.003757590647
-0.002934279983
0.004367218631
-0.004011492839
0.004612743748
-0.005073270095
0.004552455453
-0.006070066828
0.004214638481
-0.006953649919
0.003606527173
-0.0076729875
0.002728674333
-0.008172728103
0.001590459658
-0.00839426729
0.0002247071589
-0.008280976758
-0.001299252992
-0.007787640639
-0.002864304544
-0.006897459067
-0.004299793999
-0.005644705814
-0.005387262242
-0.004138620321
-0.005889271325
-0.002575004789
-0.005612976764
-0.001213738904
-0.004508308843
-0.000306613837
-0.002764213008
-0.0008250314402
-0.0003229948987
0.001419888394
-0.001062302308
0.003437824246
-0.002045275453
0.004740561806
-0.003154643656
0.005476583873
-0.004311204465
0.005769304682
-0.005459008118
0.00570026137
-0.006552993803
0.005308622362
-0.007549777229
0.00460330944
-0.008401330388
0.003580224967
-0.009051036211
0.002240164903
-0.009432353049
0.0006060224597
-0.009471439842
-0.001260173223
-0.009095813983
-0.003239936302
-0.008252486775
-0.005143119981
-0.006937640887
-0.006702105549
-0.005235924299
-0.007590988466
-0.003355887698
-0.007493010775
-0.001628424573
-0.006235773262
-0.000424476992
-0.003968156551
-0.001249507245
-0.0003353486012
0.001755236259
-0.001101933708
0.004204406592
-0.002119441358
0.005758068313
-0.003265838962
0.006622981585
-0.004461844353
0.006965312959
-0.005655698186
0.006894118231
-0.006809460231
0.006462382245
-0.007888048816
0.005681895948
-0.008850864622
0.00454303703
-0.009645401561
0.003034699109
-0.01020294781
0.001163565196
-0.01043759987
-0.001025525192
-0.0102513567
-0.003426180031
-0.009549896908
-0.005844574963
-0.008275212264
-0.007976786098
-0.006459230605
-0.009406969197
-0.004291069898
-0.009661168542
-0.002159148262
-0.008367693974
-0.0005850929183
-0.005542211542
-0.001834601999
-0.0003359154646
0.002091151159
-0.001102890821
0.004971380391
-0.002117636642
0.00677281557
-0.003255454022
0.007760802822
-0.004438651595
0.008148513112
-0.005621566268
0.008077033458
-0.006775929826
0.007616742608
-0.007878602878
0.006784566973
-0.008901626085
0.005566057869
-0.009803781359
0.003936852617
-0.01052331315
0.001883092959
-0.01097240599
-0.0005764322645
-0.01103637425
-0.003362206317
-0.0105821193
-0.006298825564
-0.009486918467
-0.00907198633
-0.007699503397
-0.01119438534
-0.005340374717
-0.01202029994
-0.002811839271
-0.0108962296
-0.0007996942187
-0.007554362821
-0.002634299553
-0.0003280192753
0.002419170174
-0.00107177645
0.00571513754
-0.002045821602
0.007746862109
-0.003123460839
0.008838446065
-0.004230203461
0.009255256214
-0.00532863596
0.009175463942
-0.006402780916
0.008690884329
-0.007444960678
0.00782674616
-0.008445032207
0.006566128904
-0.00938075245
0.004872573372
-0.01020823926
0.00271057858
-0.01085172645
6.705605132e-05
-0.01119592331
-0.003018006846
-0.01108205902
-0.00641269246
-0.01032465827
-0.009829390508
-0.008766684594
-0.01275235863
-0.006401971119
-0.01438501226
-0.003566335499
-0.01373186091
-0.001077999085
-0.01004269654
-0.003712298731
-0.0003199693036
0.002739139014
-0.00102667141
0.006421840085
-0.001926289977
0.008646480519
-0.002889451388
0.009801609684
-0.00384759093
0.01021339564
-0.004775004037
0.01010287623
-0.005671176808
0.009587055332
-0.006547053248
0.008702622882
-0.007414389491
0.007433464946
-0.008276178349
0.00573435999
-0.00911618216
0.003550581615
-0.009886401455
0.0008372781574
-0.01049027028
-0.002414136854
-0.01076825551
-0.006134709615
-0.01049174423
-0.01010590197
-0.009395811002
-0.01384829027
-0.007298174632
-0.01648264468
-0.004358952268
-0.01667108435
-0.001424051729
-0.01297759118
-0.005136354173
-0.0003278773023
0.003067016077
-0.001002043432
0.007096006375
-0.001802909792
0.009447346442
-0.002597587744
0.01059628864
-0.00332965303
0.01094546046
-0.003991607598
0.01076483296
-0.004602933806
0.01019838295
-0.005195968704
0.009295656829
-0.005806479094
0.008043973793
-0.006465676593
0.006393555667
-0.007190964973
0.00427586998
-0.007972865979
0.0016191801
-0.008755087738
-0.001631918075
-0.009407690169
-0.00548210759
-0.0096973022
-0.009816286761
-0.0092795868
-0.01426600785
-0.007777830146
-0.01798440423
-0.005064935075
-0.01938398917
-0.001827828936
-0.01621469997
-0.006964182863
-0.0003801811053
0.003447197091
-0.001054217128
0.007770042941
-0.001743585814
0.01013671614
-0.002314947187
0.01116765109
-0.002737924157
0.01136843581
-0.00303496209
0.01106187206
-0.003252210583
0.01041563397
-0.00344585928
0.00948930498
-0.003675483166
0.008273593071
-0.003999290928
0.006717361734
-0.004468168151
0.004744751961
-0.005115556071
0.002266572822
-0.005939075599
-0.0008083995209
-0.006868552546
-0.004552629897
-0.007716136267
-0.008968702014
-0.008119384966
-0.01386276001
-0.007539620256
-0.0185641693
-0.005488090635
-0.021435517
-0.002250850885
-0.01945194146
-0.009215027059
-0.0005243495788
0.003971545896
-0.001264944491
0.008510637821
-0.00183285976
0.01070463281
-0.002112012684
0.0114468063
-0.002126969853
0.01138339178
-0.00194922374
0.01088412458
-0.001660447412
0.01012685837
-0.001342659178
0.00917151758
-0.001076871761
0.008007806434
-0.0009434075087
0.006583899869
-0.001020855592
0.004822202335
-0.001381489726
0.002627203209
-0.002079338491
-0.0001105561401
-0.003122736481
-0.003509234562
-0.004417421465
-0.007674017645
-0.00566696149
-0.01261321343
-0.006262720997
-0.01796840551
-0.005357661913
-0.02234057809
-0.002603265704
-0.02220633963
-0.01181829524
-0.0008288881561
0.004800433442
-0.001727783519
0.009409532358
-0.002126132256
0.01110297982
-0.001986714833
0.0113073896
-0.00144631902
0.01084299532
-0.0006527211854
0.01009052633
0.0002680129075
0.009206125236
0.001208362907
0.00823116921
0.002070889434
0.007145282545
0.002760965945
0.005893827881
0.003181850884
0.004401320387
0.00323293982
0.002576114073
0.002812997283
0.0003093943413
0.001835547459
-0.002531784173
0.000274293196
-0.006112772856
-0.001722666111
-0.01061626416
-0.003619505306
-0.01607156652
-0.004322235995
-0.02163784379
-0.002708709704
-0.02381986252
-0.01452700716
-0.00135990768
0.006160341465
-0.002455422286
0.01050504652
-0.002456113447
0.01110366355
-0.001603300353
0.01045457652
-0.0002482443088
0.009487941895
0.00136127966
0.008481006518
0.003058192137
0.00750921321
0.004720161054
0.006569197719
0.006246150931
0.005619291066
0.007540230561
0.004599750353
0.008500870462
0.003440681393
0.009013876618
0.002063104942
0.008948072878
0.0003752023489
0.008157854618
-0.001741566675
0.006503203892
-0.004458114943
0.003936045164
-0.008049101894
0.000755279129
-0.01289079872
-0.001940742103
-0.01894181865
-0.002276516398
-0.02348408961
-0.01680351962
-0.002137005497
0.008297346773
-0.00293668173
0.01130472258
-0.001724045209
0.009891020916
0.0004700772628
0.008260449061
0.003021380035
0.006936641345
0.005642715791
0.005859674418
0.008183677164
0.004968253299
0.01054950377
0.004203371806
0.01266701013
0.003501789287
0.01446270152
0.002804063713
0.0158501998
0.002053180988
0.01672152881
0.001191773414
0.01693808058
0.0001586525804
0.01632578705
-0.001129277027
0.01466686197
-0.002799185235
0.01172487234
-0.005107103772
0.007409531996
-0.00857546756
0.002410865424
-0.01394315414
-0.0009004720529
-0.02017275304
-0.01770399282
-0.002482259588
0.01077960444
-7.66725938e-06
0.008830131766
0.00417468122
0.005708673804
0.008309431004
0.004125698187
0.01208377742
0.003162292648
0.01546965643
0.002473794885
0.01847076512
0.001967144726
0.02109532895
0.001578807167
0.02334175424
0.001255365874
0.02518897906
0.0009568444385
0.02659056991
0.0006515962374
0.02746786818
0.0003144801192
0.02770495438
-7.844054508e-05
0.02714003283
-0.0005643584121
0.0255327035
-0.001191868452
0.02252042907
-0.002094830293
0.01759975133
-0.003654796589
0.01038773171
-0.006731121466
0.002466589903
-0.01225162149
-0.01523740047
0.01077960229
0.0196097305
0.02531840351
0.02944410225
0.03260639655
0.03508019212
0.0370473354
0.03862614353
0.03988151329
0.04083835595
0.04148994896
0.04180443672
0.04172599423
0.04116164196
0.03996977329
0.03787494337
0.03422014554
0.02748902196
0.01523740057
)
;

boundaryField
{
    movingWall
    {
        type            calculated;
        value           uniform 0;
    }
    fixedWalls
    {
        type            calculated;
        value           uniform 0;
    }
    frontAndBack
    {
        type            empty;
    }
}


// ************************************************************************* //
