/*--------------------------------*- C++ -*----------------------------------*\
  =========                 |
  \\      /  F ield         | OpenFOAM: The Open Source CFD Toolbox
   \\    /   O peration     | Website:  https://openfoam.org
    \\  /    A nd           | Version:  13
     \\/     M anipulation  |
\*---------------------------------------------------------------------------*/
FoamFile
{
    format      ascii;
    class       volVectorField;
    location    "26";
    object      U_0;
}
// * * * * * * * * * * * * * * * * * * * * * * * * * * * * * * * * * * * * * //

dimensions      [0 1 -1 0 0 0 0];

internalField   nonuniform List<vector> 
400
(
(1.091321745e-05 -3.788733722e-05 0)
(-0.000666181554 0.0004130239177 -1.545488652e-23)
(-0.002185349068 0.0009203667683 0)
(-0.004047733415 0.001312739832 0)
(-0.005971698947 0.001535017749 6.836483099e-25)
(-0.007762554145 0.001569799497 4.152253921e-24)
(-0.009284270188 0.001423520865 -7.344967126e-24)
(-0.01043563749 0.001119690805 7.559865043e-24)
(-0.0111365016 0.000696063563 -2.09765506e-25)
(-0.0113268112 0.000203073421 -3.998105261e-24)
(-0.01097150545 -0.000300223438 5.807310641e-24)
(-0.01007211117 -0.0007474954803 -5.932546315e-23)
(-0.008679725205 -0.001075536648 -6.555776161e-23)
(-0.006902764258 -0.001233020047 -7.787598667e-23)
(-0.004910711604 -0.001192622385 4.575658685e-24)
(-0.002927255444 -0.0009619168734 -4.140087157e-24)
(-0.001205353989 -0.0005912214533 -2.000188698e-22)
(-1.912845355e-05 -0.0001699022389 0)
(0.0005181107579 0.000172062409 1.515752166e-25)
(0.0002227402349 0.0003059637208 -2.632789037e-24)
(-0.0002633986379 0.0008288674159 1.387514327e-25)
(-0.002703268051 0.003383700727 1.555185929e-23)
(-0.006907074495 0.005604291455 1.546247611e-25)
(-0.01195192788 0.007007954977 -8.477216604e-25)
(-0.01713446321 0.007553512421 1.159451617e-24)
(-0.02197460734 0.007293956286 1.303979932e-23)
(-0.02610988631 0.006321697676 1.417116309e-24)
(-0.02926469302 0.004754063 -7.310855597e-24)
(-0.03122574955 0.002737099153 1.016696418e-23)
(-0.03184105787 0.0004524322769 4.513993632e-24)
(-0.03102674418 -0.001884043167 -6.322901586e-24)
(-0.02879242405 -0.004022870534 2.961001115e-24)
(-0.02527080178 -0.005708163344 3.897125082e-23)
(-0.0207315422 -0.006707216691 -1.955808239e-24)
(-0.01558938926 -0.006853976719 3.756619835e-24)
(-0.01038504024 -0.006097355795 -9.748434608e-23)
(-0.005730278756 -0.004546146514 9.645220079e-23)
(-0.00223341942 -0.002507442788 -3.973560999e-25)
(-0.0001818234749 -0.0005024357675 4.073774836e-25)
(8.342813593e-05 0.0006098756707 0)
(-0.0004188172012 0.002934956152 -2.914802457e-25)
(-0.004647727887 0.008803676263 1.707872699e-23)
(-0.01137155657 0.01323992126 -8.227575641e-24)
(-0.0193265861 0.0157914538 -2.066256149e-25)
(-0.02747311195 0.01652940477 2.029881237e-25)
(-0.03511651783 0.01564388049 7.726160638e-27)
(-0.04171197155 0.01335955476 -1.248733662e-24)
(-0.04683410947 0.009919505398 -4.569468727e-25)
(-0.05014823414 0.005602346083 -1.064588531e-23)
(-0.0514106969 0.0007445158577 0)
(-0.05047642274 -0.004241522718 0)
(-0.04733573738 -0.008886800941 2.672640239e-23)
(-0.04215818791 -0.01268130525 2.814579747e-23)
(-0.03531354514 -0.01513557025 -1.647227874e-24)
(-0.0273893966 -0.01586146039 4.849511107e-23)
(-0.01916972887 -0.01467300907 9.426514392e-23)
(-0.01156076111 -0.01169341064 3.983297827e-23)
(-0.005465379439 -0.007450694113 4.166804887e-25)
(-0.001451113835 -0.002936101129 1.060868771e-25)
(-9.072743283e-05 0.0002258038818 0)
(-0.0005024457688 0.006045114958 -4.254391488e-23)
(-0.006402498808 0.01637011978 -1.698087046e-23)
(-0.01553443018 0.02355842947 8.154452613e-24)
(-0.02627812061 0.02744059523 0)
(-0.03728606793 0.02831999776 0)
(-0.04768862105 0.02658681865 0)
(-0.05679459709 0.02263050088 -4.561122726e-26)
(-0.06405162148 0.01683565645 -2.120396909e-24)
(-0.06900851414 0.009622047981 0)
(-0.07130600541 0.0014912207 1.639401786e-24)
(-0.0707063901 -0.006936056547 2.805280819e-25)
(-0.06712846291 -0.01492951739 -2.813135539e-25)
(-0.06069740947 -0.02166646523 0)
(-0.051806189 -0.02631519168 4.136805717e-23)
(-0.04114894653 -0.02815989591 -4.685117852e-23)
(-0.02971906113 -0.02677305763 -2.765850142e-23)
(-0.01873680561 -0.02221485814 -3.968565548e-23)
(-0.009487871571 -0.01521901619 7.795615081e-25)
(-0.002976845553 -0.007298189443 9.781802093e-23)
(-0.0002318754384 -0.0008662387246 0)
(-0.0005315912782 0.01009462385 4.275086044e-23)
(-0.007983282794 0.02595118546 4.77619644e-25)
(-0.01939613073 0.03642743061 -4.667109727e-25)
(-0.03282258814 0.04185364648 0)
(-0.04664517196 0.04289332267 7.773598905e-25)
(-0.05985015091 0.04019939906 -7.665814997e-25)
(-0.07163042531 0.03434638361 3.669214199e-23)
(-0.08132478647 0.02585599857 1.844975746e-23)
(-0.08836316347 0.0152727766 6.229976316e-24)
(-0.0922518477 0.003246381045 -1.641311705e-24)
(-0.09260106587 -0.009407188129 0)
(-0.0891730439 -0.0216737969 4.375995043e-25)
(-0.08195759177 -0.03236623229 1.010870863e-23)
(-0.07126703095 -0.04021117811 -4.353065323e-23)
(-0.05781877984 -0.04401917917 1.935222656e-24)
(-0.04278483908 -0.04294718912 4.224994972e-23)
(-0.027753894 -0.03683265754 -3.854161005e-25)
(-0.01455032055 -0.02652674689 0)
(-0.004859368335 -0.01408440159 5.436320546e-23)
(-0.0003641380681 -0.002846988949 -2.564158926e-22)
(-0.0005272007519 0.01499869667 9.835534409e-23)
(-0.009377578822 0.03738878611 -4.903174266e-25)
(-0.02288099729 0.05170028384 0)
(-0.03882905673 0.05893968655 0)
(-0.05538465262 0.0602536616 -8.728937703e-23)
(-0.07142637216 0.05661719053 -8.495916503e-23)
(-0.08606375623 0.04880028487 -4.064165228e-23)
(-0.09854779259 0.03743892288 -1.50278069e-23)
(-0.1081913013 0.0231595335 -5.361039462e-24)
(-0.1143412049 0.006709957799 -8.170293205e-24)
(-0.1164014373 -0.01093209473 6.596048115e-24)
(-0.113890757 -0.02848815726 8.817279577e-24)
(-0.1065460205 -0.04436882548 -1.892172094e-23)
(-0.0944657569 -0.05675151465 4.567931842e-24)
(-0.07826674306 -0.06378116065 0)
(-0.05922761602 -0.06393331489 -1.576938209e-23)
(-0.03933895434 -0.05653687791 -2.300181365e-26)
(-0.02114143247 -0.04235726745 0)
(-0.007318546314 -0.02398193526 -1.519758111e-22)
(-0.0005216004997 -0.005925516281 6.054390894e-22)
(-0.000499067234 0.02064496453 -9.76854318e-23)
(-0.01052916347 0.05045250002 2.831326046e-22)
(-0.02582873683 0.06912260519 1.526529814e-22)
(-0.04401998464 0.0784898365 3.61825354e-24)
(-0.06310544024 0.08029211254 -7.318973801e-23)
(-0.08190160021 0.07587811706 9.040161458e-23)
(-0.09947477229 0.06621511651 -3.58913687e-24)
(-0.1150195635 0.05201580358 -1.728581938e-24)
(-0.1277485483 0.03392314691 2.523271483e-24)
(-0.1368438135 0.01270261573 7.378226107e-24)
(-0.1414676476 -0.01058685487 -6.496075111e-24)
(-0.1408215715 -0.03445867796 -9.777767315e-24)
(-0.1342716186 -0.05692568633 -3.26170307e-23)
(-0.1215424164 -0.07553084236 -3.655076888e-23)
(-0.1029651155 -0.08754020979 5.632918791e-25)
(-0.0797620666 -0.09038986049 0)
(-0.0542657282 -0.08244329061 0)
(-0.02987100687 -0.06397608739 -2.904638761e-24)
(-0.01066263267 -0.03798729493 2.96905638e-24)
(-0.0007350727685 -0.01050076835 1.027834374e-22)
(-0.0004479100054 0.02687154139 0)
(-0.01134892602 0.06480527399 2.001907288e-22)
(-0.02801524019 0.08829312616 8.961862769e-23)
(-0.04799729404 0.100120187 0)
(-0.06920421887 0.1027044677 1.569538974e-22)
(-0.09044145524 0.09781300701 0)
(-0.1107804918 0.08660886661 -1.428165889e-22)
(-0.1294063936 0.06983809115 6.51430221e-24)
(-0.1454739755 0.04808173333 0)
(-0.1580318912 0.02201780609 0)
(-0.1660100571 -0.007333387721 -1.374052259e-24)
(-0.1682639698 -0.03838662807 -9.313170298e-25)
(-0.163703485 -0.06883740622 1.491507349e-22)
(-0.1515181923 -0.09558000284 -4.704507117e-23)
(-0.1315111695 -0.1148269363 -2.559539296e-24)
(-0.1045578053 -0.1225675054 1.53332059e-24)
(-0.07309223656 -0.1155493436 -1.55750763e-24)
(-0.04134949041 -0.0928293456 0)
(-0.01525202584 -0.05740666182 3.203033713e-24)
(-0.001044283366 -0.01714688756 -1.012710891e-21)
(-0.0003744710394 0.03346192138 0)
(-0.01174983446 0.07998653772 -1.127971777e-22)
(-0.02920649333 0.1086355981 -6.190396112e-22)
(-0.05031643298 0.123219612 -3.754903753e-22)
(-0.07296171913 0.1269060599 0)
(-0.09598774395 0.1219223874 4.11899797e-22)
(-0.1185251512 0.1096323821 1.260728501e-22)
(-0.1398121841 0.0907808156 -5.581077526e-24)
(-0.1590195196 0.06581320165 5.55345419e-24)
(-0.1751433684 0.03520900713 0)
(-0.1869532435 -0.0001956645331 2.911777491e-23)
(-0.1930145568 -0.03889565843 4.695013329e-24)
(-0.1917783996 -0.0784363268 -1.076553001e-22)
(-0.1817850406 -0.1151834767 8.001770232e-23)
(-0.1620549133 -0.1442566027 -2.419212471e-22)
(-0.1327044375 -0.1598515123 0)
(-0.09577757778 -0.1563082598 0)
(-0.05601553786 -0.1302957464 0)
(-0.02147826835 -0.08380992635 0)
(-0.001500354212 -0.02665474532 5.571088346e-22)
(-0.0002874068751 0.04015955583 0)
(-0.01169348449 0.09543323107 -3.49263327e-22)
(-0.02924404764 0.1294035513 8.931969564e-22)
(-0.05060884775 0.1469257871 3.616789171e-22)
(-0.07369989684 0.1519708974 0)
(-0.09745030047 0.1472723397 -3.862124443e-22)
(-0.1211055411 0.1344164949 -3.174116401e-23)
(-0.144030866 0.1141375365 3.332815652e-22)
(-0.1655126032 0.0866992436 1.769321757e-22)
(-0.1846230775 0.05229138738 -4.059808968e-23)
(-0.2001307912 0.01141823915 1.656777354e-23)
(-0.2104604651 -0.03471233102 -8.264306523e-24)
(-0.2137191023 -0.08376301485 3.371532526e-22)
(-0.2078198502 -0.1318724533 0)
(-0.1908222481 -0.1732720605 2.420381239e-22)
(-0.1616321391 -0.2002556623 5.773133994e-24)
(-0.1211651132 -0.2040086993 -5.859228511e-24)
(-0.07384912998 -0.177209137 1.547908925e-22)
(-0.02971752446 -0.1188623896 -5.43382852e-24)
(-0.002179510735 -0.04005338789 0)
(-0.0002117486715 0.04671515281 0)
(-0.01125003657 0.110546841 0)
(-0.02815621831 0.1497315491 -5.022336999e-22)
(-0.04874465847 0.1701474672 -1.880855601e-23)
(-0.07100060105 0.1766215896 2.038220819e-23)
(-0.09399412841 0.1724490722 -2.014155179e-23)
(-0.1171429551 0.1594843206 -2.316703546e-23)
(-0.1400174305 0.1384786774 -3.029559327e-22)
(-0.1621323637 0.1095152424 6.698482634e-23)
(-0.1827953974 0.07245202335 4.512789367e-23)
(-0.2009830699 0.02735035199 -4.577322492e-23)
(-0.2152265404 -0.02508511044 0)
(-0.2235556954 -0.0829809708 -7.838221603e-23)
(-0.2234626111 -0.1427226414 0)
(-0.2120672319 -0.1981785882 -3.739228215e-22)
(-0.1867426681 -0.240073646 5.244338725e-22)
(-0.1464430603 -0.2560736722 0)
(-0.0939450686 -0.2331177534 -1.493471423e-22)
(-0.04021968913 -0.1639591588 1.937010128e-22)
(-0.003201063698 -0.0586098453 -3.410991423e-22)
(-0.0002015795269 0.0529746592 0)
(-0.01067279033 0.1248143465 9.182349364e-22)
(-0.0262847769 0.1687385683 -2.440534029e-23)
(-0.04501148481 0.1916412633 9.192815321e-22)
(-0.06494644755 0.1992880208 -2.511928527e-23)
(-0.08536681557 0.1956069085 2.838664037e-23)
(-0.1059311635 0.1827859852 -2.81275174e-23)
(-0.1264931051 0.1616566174 -1.660815834e-23)
(-0.1469004726 0.1321754976 -5.259913015e-22)
(-0.1668467002 0.09389668736 -8.906095063e-24)
(-0.1857312513 0.04640683049 9.659641581e-24)
(-0.2024791277 -0.01023607145 3.3129168e-22)
(-0.215416342 -0.0749958484 -5.820406899e-22)
(-0.2220216677 -0.1450283677 0)
(-0.2188036359 -0.2146728769 8.88668892e-22)
(-0.2016258657 -0.27399819 -4.940308492e-22)
(-0.1668637605 -0.3075776549 -1.572037019e-23)
(-0.1140217152 -0.2953779172 0)
(-0.05288458517 -0.2195778209 -1.889652903e-22)
(-0.004749153333 -0.08377182896 3.360058512e-22)
(-0.0003642442981 0.05902212267 1.550928674e-23)
(-0.0104960498 0.1379855076 -8.763701142e-22)
(-0.0244145338 0.1856767894 -1.157004375e-21)
(-0.04026818664 0.2101344788 -8.62849633e-22)
(-0.05630850192 0.2182310442 0)
(-0.07215000264 0.2146157324 3.513619466e-23)
(-0.08779386346 0.2018767195 -7.294484267e-23)
(-0.1034581227 0.1809990402 5.867583186e-23)
(-0.1194004092 0.1518991747 3.021202335e-22)
(-0.1357953214 0.1139154039 -1.128141427e-23)
(-0.1526104894 0.06621535269 0)
(-0.169454397 0.008178892177 -3.603752131e-22)
(-0.1852782117 -0.06015775468 7.51534938e-22)
(-0.1980467723 -0.137272267 8.831365541e-22)
(-0.2043561801 -0.2189235028 -5.296307967e-22)
(-0.1990988413 -0.295968377 5.162404355e-22)
(-0.1760611068 -0.351404173 1.078062332e-23)
(-0.1300892088 -0.3584120493 -1.095374634e-23)
(-0.06688795496 -0.2843251985 -8.220293891e-23)
(-0.007083293803 -0.1169953847 0)
(-0.0009096275431 0.06539956961 -1.911402495e-23)
(-0.0116763442 0.1502794049 -1.326912982e-21)
(-0.02388974358 0.2000627982 1.094186013e-21)
(-0.03601481914 0.2244181519 6.734655854e-22)
(-0.04657494344 0.2316553924 6.014383714e-22)
(-0.05577261966 0.2272364463 6.643678721e-22)
(-0.06411500572 0.2141753358 -4.458481665e-23)
(-0.07227842057 0.1936481935 -3.461199797e-22)
(-0.08097273091 0.1656024952 2.15208062e-22)
(-0.09087505396 0.1292712176 0)
(-0.1025579327 0.08353196569 0)
(-0.1163653719 0.02720171583 2.655317124e-22)
(-0.1321619799 -0.04061817014 8.194482747e-23)
(-0.1489280046 -0.1200107951 -2.821465184e-22)
(-0.1641308131 -0.208927941 -5.411086594e-23)
(-0.1727896223 -0.3006970092 1.301971711e-22)
(-0.1670323736 -0.379330506 -3.400249589e-22)
(-0.1365298587 -0.4136427088 -1.596152914e-23)
(-0.08018263283 -0.3538304098 8.20905977e-23)
(-0.01050761529 -0.1594119871 -6.032581173e-22)
(-0.002260548417 0.07348825281 0)
(-0.01580406102 0.1626504717 2.145794873e-21)
(-0.02665155148 0.2117879381 0)
(-0.0342251615 0.2333917961 -1.351757598e-21)
(-0.03759633137 0.2377738036 6.184202767e-23)
(-0.03799968669 0.2312528944 -6.19283385e-22)
(-0.03668586324 0.217188112 -4.756107898e-22)
(-0.03489383156 0.1968924831 8.300941996e-22)
(-0.03379200955 0.1703340732 -1.885625873e-22)
(-0.03450244901 0.1367226615 0)
(-0.03811937876 0.09479785222 0)
(-0.0456534614 0.04304435053 2.410694542e-23)
(-0.05791139595 -0.02013614821 -6.007030412e-22)
(-0.0751490742 -0.09620482295 -4.30944278e-22)
(-0.09645447691 -0.1855539912 4.637753646e-22)
(-0.118348507 -0.2853551823 -6.488471902e-22)
(-0.1332731979 -0.383836985 9.119347764e-23)
(-0.1265360775 -0.4504341073 2.939766526e-23)
(-0.08899187885 -0.4198518999 5.660619631e-22)
(-0.01526919839 -0.2111710095 6.021213121e-22)
(-0.005180942452 0.08598016693 0)
(-0.02525602374 0.1766280154 1.465591641e-22)
(-0.0348352737 0.2205943439 -4.916992578e-23)
(-0.03640205372 0.2354837268 7.642669505e-22)
(-0.0301874112 0.2343384403 -7.005127575e-22)
(-0.01916893057 0.2241584492 4.746316544e-23)
(-0.005618657919 0.2083511716 -1.018587964e-22)
(0.008565857757 0.1881233475 -3.389767575e-22)
(0.02179499079 0.1633910332 2.062760279e-22)
(0.03262398938 0.1333247804 0)
(0.03958090444 0.096641836 0)
(0.04116667537 0.05174183154 -2.902595441e-22)
(0.03578163197 -0.003254024686 0)
(0.02197893096 -0.07058226048 -5.512085141e-22)
(-0.001267421867 -0.1525723309 -1.492168004e-23)
(-0.03310686696 -0.2505939014 2.559633034e-23)
(-0.06909409011 -0.3599331064 2.20294961e-22)
(-0.09227940392 -0.4575414331 4.789150273e-24)
(-0.08718136043 -0.4698117995 -5.789601142e-22)
(-0.0210313196 -0.2698964844 0)
(-0.01111633809 0.1085974714 0)
(-0.0424894408 0.1947146468 -8.84824266e-22)
(-0.04795633481 0.2258184704 -5.410920289e-22)
(-0.03919710359 0.2282120935 4.543704839e-22)
(-0.0187807161 0.2182312473 -1.710039294e-24)
(0.007661335743 0.2028206198 -4.560913409e-23)
(0.03667655974 0.1847609172 5.696495299e-22)
(0.06582638049 0.1647112053 -2.766806303e-23)
(0.09326763351 0.1423127078 -2.069718418e-22)
(0.1173855759 0.1166278498 3.142129369e-23)
(0.1365427877 0.08641216666 -3.425835654e-23)
(0.1489638238 0.05017765933 -3.690520244e-23)
(0.152524813 0.006160234929 3.205573257e-22)
(0.1449342946 -0.0479602457 6.119493411e-22)
(0.1235139015 -0.1153044142 -5.10107241e-22)
(0.08633362174 -0.2004188764 -1.615995313e-22)
(0.03198939591 -0.3067801265 1.53136105e-22)
(-0.02362230157 -0.4239831786 7.293739104e-23)
(-0.06492456584 -0.4871606695 1.913302352e-21)
(-0.02509977688 -0.3291539978 2.95500362e-21)
(-0.02004678884 0.1460728822 -4.390137513e-23)
(-0.0641642563 0.2112954968 4.417309816e-23)
(-0.05070292907 0.2177295748 1.000169028e-21)
(-0.01934214149 0.2014672036 -8.269200567e-24)
(0.02414290086 0.180906672 0)
(0.07153893753 0.1606924194 4.363591894e-23)
(0.1190676513 0.1416488177 -2.273781198e-22)
(0.1644737883 0.1233177234 -9.027668231e-23)
(0.2062220757 0.1048115945 3.680620114e-23)
(0.2429613262 0.08507157868 -1.701611037e-23)
(0.2732179765 0.06296191309 3.429888866e-23)
(0.2952511306 0.0372635474 -6.592538341e-23)
(0.3066949469 0.006535751083 -9.303741927e-23)
(0.3049720105 -0.0308770423 1.51701373e-22)
(0.2863921435 -0.0778623633 0)
(0.2470556281 -0.1399296592 1.50554161e-22)
(0.181091268 -0.2266298031 2.560016784e-22)
(0.09604378864 -0.3443892835 0)
(-0.006697980904 -0.4552207965 -3.675651863e-21)
(-0.01922414173 -0.3777535503 -2.892632659e-21)
(-0.02591946936 0.2276830291 -9.51415875e-22)
(-0.0399831762 0.2238217561 -1.388958288e-22)
(0.03656129153 0.1810584445 -2.335534157e-22)
(0.1090499139 0.1451056257 -1.193715716e-22)
(0.1817183169 0.1172441411 -4.295727787e-23)
(0.2490078324 0.09627864358 9.782852063e-23)
(0.3100320472 0.08002473434 -1.408543318e-22)
(0.364619034 0.06656790554 1.297133344e-22)
(0.4126232068 0.05449169709 -8.619854516e-23)
(0.4536229865 0.042709015 1.132183372e-25)
(0.486785955 0.0303231825 1.527705302e-23)
(0.5107434431 0.01652930631 7.997028836e-23)
(0.5236583484 0.0005368205622 -1.811087456e-22)
(0.5231787361 -0.01863343452 -1.617115785e-22)
(0.505231559 -0.04286454896 -4.262780981e-23)
(0.465870957 -0.07633216072 0)
(0.3952692505 -0.1286088909 -1.846507712e-22)
(0.2916068041 -0.2208467961 8.148793138e-22)
(0.1197453284 -0.3525016776 1.631606561e-21)
(0.02670542654 -0.3775497706 2.172658332e-21)
(0.2142894921 0.1347447654 9.864938554e-22)
(0.2776312606 0.09870509289 0)
(0.4316593874 0.05810417476 -2.594280429e-22)
(0.5304750007 0.03846264066 -1.741629177e-22)
(0.6016964558 0.02623415512 0)
(0.6571195475 0.01831918891 -6.008884166e-23)
(0.7015207953 0.0131359691 6.37776546e-23)
(0.7376035225 0.009542104758 -1.800088992e-23)
(0.7669360294 0.006804466326 2.885870858e-23)
(0.7902098579 0.00446477089 2.314960146e-23)
(0.8074547707 0.002221366092 0)
(0.8182615426 -0.0001500168632 -2.872964361e-23)
(0.8216495493 -0.002723787256 0)
(0.8162391744 -0.005712622615 2.738055749e-23)
(0.7991332102 -0.009611355711 1.421617915e-23)
(0.7679986236 -0.01500254376 -5.799470871e-23)
(0.7106556007 -0.02502521154 -2.535678515e-22)
(0.6235184141 -0.04204286821 -6.918124984e-22)
(0.4230091001 -0.09182969547 0)
(0.2705674645 -0.1524021907 -2.119486137e-21)
)
;

boundaryField
{
    movingWall
    {
        type            calculated;
        value           uniform (1 0 0);
    }
    fixedWalls
    {
        type            calculated;
        value           uniform (0 0 0);
    }
    frontAndBack
    {
        type            empty;
    }
}


// ************************************************************************* //
