/*--------------------------------*- C++ -*----------------------------------*\
  =========                 |
  \\      /  F ield         | OpenFOAM: The Open Source CFD Toolbox
   \\    /   O peration     | Website:  https://openfoam.org
    \\  /    A nd           | Version:  13
     \\/     M anipulation  |
\*---------------------------------------------------------------------------*/
FoamFile
{
    format      ascii;
    class       vectorField;
    location    "26";
    object      U_all;
}
// * * * * * * * * * * * * * * * * * * * * * * * * * * * * * * * * * * * * * //


400
(
(1.091340689e-05 -3.788720113e-05 0)
(-0.0006661814128 0.0004130239868 -1.545487863e-23)
(-0.002185349038 0.0009203665862 0)
(-0.004047733625 0.001312739525 0)
(-0.005971700053 0.001535017955 6.83647782e-25)
(-0.007762556057 0.001569800579 4.152288172e-24)
(-0.009284271963 0.001423522292 -7.345012967e-24)
(-0.01043563827 0.001119691509 7.559831641e-24)
(-0.01113650149 0.0006960629088 -2.09765685e-25)
(-0.01132681119 0.000203071804 -3.998104298e-24)
(-0.01097150637 -0.0003002250121 5.807314559e-24)
(-0.01007211303 -0.0007474961638 -5.932552428e-23)
(-0.008679727271 -0.001075536299 -6.555780059e-23)
(-0.006902765587 -0.001233019205 -7.78759583e-23)
(-0.004910711758 -0.001192621735 4.575656623e-24)
(-0.002927254753 -0.0009619167146 -4.140085931e-24)
(-0.001205353161 -0.0005912216146 -2.000188842e-22)
(-1.912796958e-05 -0.0001699024076 0)
(0.000518110928 0.0001720623771 1.51575565e-25)
(0.0002227402557 0.0003059637636 -2.632816851e-24)
(-0.0002633986051 0.0008288677341 1.387515392e-25)
(-0.002703268595 0.003383701594 1.555184742e-23)
(-0.00690707566 0.005604292324 1.546251318e-25)
(-0.01195192908 0.00700795525 -8.477207015e-25)
(-0.01713446482 0.007553512598 1.159448412e-24)
(-0.02197461032 0.007293957346 1.303975107e-23)
(-0.02610989102 0.006321699811 1.417190014e-24)
(-0.02926469863 0.004754065188 -7.310809102e-24)
(-0.03122575453 0.002737100011 1.01669562e-23)
(-0.03184106139 0.0004524313189 4.513991815e-24)
(-0.0310267465 -0.001884045265 -6.322907028e-24)
(-0.02879242597 -0.004022872587 2.961035787e-24)
(-0.02527080399 -0.005708164479 3.897128681e-23)
(-0.02073154463 -0.006707216874 -1.955809617e-24)
(-0.01558939119 -0.006853976537 3.756621445e-24)
(-0.01038504108 -0.00609735579 -9.748436134e-23)
(-0.005730278596 -0.004546146739 9.645219919e-23)
(-0.002233418871 -0.002507442963 -3.973564445e-25)
(-0.0001818230122 -0.0005024357177 4.073778465e-25)
(8.342827683e-05 0.0006098757906 0)
(-0.0004188170821 0.002934956361 -2.914806057e-25)
(-0.004647728589 0.008803677863 1.707880966e-23)
(-0.01137155902 0.01323992416 -8.227500873e-24)
(-0.01932658968 0.01579145669 -2.066272634e-25)
(-0.02747311595 0.01652940658 2.029897129e-25)
(-0.03511652226 0.0156438813 7.727377385e-27)
(-0.04171197708 0.01335955554 -1.248801642e-24)
(-0.04683411652 0.00991950685 -4.569520954e-25)
(-0.05014824221 0.005602347844 -1.064587575e-23)
(-0.05141070485 0.0007445168304 0)
(-0.05047642954 -0.004241523264 0)
(-0.04733574256 -0.008886803065 2.672640119e-23)
(-0.04215819174 -0.01268130819 2.814581708e-23)
(-0.03531354817 -0.015135573 -1.647229028e-24)
(-0.0273893991 -0.01586146234 4.849514135e-23)
(-0.01916973066 -0.01467301021 9.426515932e-23)
(-0.011560762 -0.01169341121 3.983300831e-23)
(-0.005465379599 -0.007450694267 4.166808863e-25)
(-0.00145111362 -0.002936100969 1.060866692e-25)
(-9.072729999e-05 0.0002258040692 0)
(-0.0005024455339 0.006045115535 -4.254387896e-23)
(-0.006402499317 0.01637012171 -1.698095326e-23)
(-0.01553443273 0.02355843336 8.154378675e-24)
(-0.0262781256 0.02744060052 0)
(-0.03728607467 0.028320003 0)
(-0.04768862865 0.02658682247 0)
(-0.05679460513 0.02263050285 -4.561099859e-26)
(-0.06405163016 0.01683565708 -2.120399545e-24)
(-0.06900852367 0.009622047987 0)
(-0.07130601545 0.001491220268 1.63940662e-24)
(-0.0707063999 -0.006936057669 2.80528136e-25)
(-0.06712847162 -0.01492951961 -2.813136083e-25)
(-0.06069741646 -0.02166646862 0)
(-0.05180619423 -0.02631519573 4.13680544e-23)
(-0.04114895033 -0.02815989977 -4.685120765e-23)
(-0.0297190638 -0.02677306062 -2.765852171e-23)
(-0.01873680728 -0.02221485999 -3.968568549e-23)
(-0.009487872372 -0.01521901697 7.795617047e-25)
(-0.002976845712 -0.00729818944 9.781799435e-23)
(-0.000231875399 -0.0008662384979 0)
(-0.0005315913509 0.01009462581 4.275082478e-23)
(-0.007983283865 0.02595118909 4.776198633e-25)
(-0.01939613328 0.03642743557 -4.667111817e-25)
(-0.03282259323 0.04185365274 0)
(-0.04664517973 0.04289332969 7.773589707e-25)
(-0.05985016075 0.04019940564 -7.665806058e-25)
(-0.07163043626 0.03434638847 3.669214347e-23)
(-0.08132479786 0.02585600102 1.844976851e-23)
(-0.08836317508 0.01527277677 6.229978322e-24)
(-0.09225185944 0.003246379471 -1.641316551e-24)
(-0.09260107751 -0.009407191003 0)
(-0.08917305494 -0.02167380079 4.375997966e-25)
(-0.0819576015 -0.0323662371 1.010871709e-23)
(-0.07126703882 -0.0402111836 -4.35306506e-23)
(-0.05781878569 -0.04401918475 1.935222921e-24)
(-0.0427848431 -0.04294719402 4.224998071e-23)
(-0.0277538965 -0.0368326611 -3.854166246e-25)
(-0.01455032187 -0.02652674887 0)
(-0.004859368797 -0.01408440217 5.436319677e-23)
(-0.0003641381185 -0.002846988826 -2.564158696e-22)
(-0.0005272012003 0.01499869974 9.835528354e-23)
(-0.009377580779 0.03738879268 -4.903174823e-25)
(-0.02288100064 0.05170029172 0)
(-0.0388290621 0.05893969481 0)
(-0.05538466048 0.06025366985 -8.728936059e-23)
(-0.07142638252 0.0566171983 -8.495913257e-23)
(-0.08606376855 0.04880029131 -4.064165327e-23)
(-0.09854780601 0.03743892706 -1.502781534e-23)
(-0.108191315 0.02315953484 -5.361041115e-24)
(-0.1143412185 0.006709956306 -8.170293284e-24)
(-0.1164014506 -0.01093209864 6.596046826e-24)
(-0.1138907696 -0.02848816295 8.817274745e-24)
(-0.1065460321 -0.04436883236 -1.892171778e-23)
(-0.09446576683 -0.05675152221 4.567912347e-24)
(-0.07826675093 -0.06378116831 0)
(-0.05922762166 -0.06393332189 -1.576939363e-23)
(-0.0393389579 -0.05653688347 -2.30014433e-26)
(-0.02114143434 -0.04235727103 0)
(-0.007318546997 -0.02398193681 -1.519757757e-22)
(-0.000521600588 -0.005925516425 6.054390406e-22)
(-0.0004990675679 0.0206449677 -9.76853715e-23)
(-0.01052916543 0.05045250862 2.831325265e-22)
(-0.02582874082 0.06912261636 1.526529717e-22)
(-0.04401999058 0.07848984808 3.618254017e-24)
(-0.06310544824 0.08029212327 -7.318976191e-23)
(-0.08190161037 0.07587812634 9.040158009e-23)
(-0.09947478447 0.06621512391 -3.58913601e-24)
(-0.1150195772 0.0520158086 -1.728581623e-24)
(-0.1277485629 0.03392314901 2.52327111e-24)
(-0.1368438282 0.01270261463 7.378226245e-24)
(-0.141467662 -0.01058685909 -6.496073979e-24)
(-0.1408215851 -0.03445868482 -9.777762037e-24)
(-0.1342716312 -0.05692569508 -3.261703381e-23)
(-0.1215424275 -0.07553085219 -3.655073673e-23)
(-0.1029651248 -0.08754021987 5.632912176e-25)
(-0.07976207361 -0.09038986992 0)
(-0.05426573284 -0.08244329846 0)
(-0.02987100936 -0.0639760929 -2.9046382e-24)
(-0.01066263358 -0.03798729776 2.969055794e-24)
(-0.0007350728637 -0.01050076893 1.027834354e-22)
(-0.000447909934 0.02687154486 0)
(-0.01134892725 0.06480528356 2.00190742e-22)
(-0.02801524374 0.08829313943 8.961860507e-23)
(-0.04799729983 0.1001202014 0)
(-0.06920422664 0.1027044813 1.569539044e-22)
(-0.09044146479 0.09781301857 0)
(-0.110780503 0.08660887544 -1.428165826e-22)
(-0.1294064062 0.06983809691 6.514301571e-24)
(-0.1454739891 0.04808173579 0)
(-0.1580319053 0.02201780511 0)
(-0.1660100711 -0.007333392132 -1.374052162e-24)
(-0.1682639833 -0.03838663562 -9.313169014e-25)
(-0.1637034976 -0.0688374163 1.491507159e-22)
(-0.1515182037 -0.09558001459 -4.704507226e-23)
(-0.1315111792 -0.1148269487 -2.559538583e-24)
(-0.1045578131 -0.1225675174 1.533320001e-24)
(-0.07309224197 -0.1155493539 -1.557507023e-24)
(-0.04134949347 -0.09282935329 0)
(-0.015252027 -0.05740666618 3.203033411e-24)
(-0.001044283474 -0.0171468887 -1.012710834e-21)
(-0.0003744708096 0.03346192593 0)
(-0.01174983508 0.07998654845 -1.127971198e-22)
(-0.02920649574 0.1086356127 -6.190395538e-22)
(-0.05031643749 0.1232196282 -3.754903467e-22)
(-0.07296172557 0.1269060756 0)
(-0.09598775199 0.121922401 4.11899783e-22)
(-0.1185251605 0.1096323925 1.260728446e-22)
(-0.1398121945 0.09078082238 -5.581077201e-24)
(-0.1590195308 0.06581320455 5.553453869e-24)
(-0.17514338 0.03520900619 0)
(-0.1869532552 -0.0001956691472 2.911777328e-23)
(-0.1930145683 -0.03889566643 4.695013025e-24)
(-0.1917784105 -0.07843633768 -1.076552908e-22)
(-0.1817850507 -0.1151834898 8.001769142e-23)
(-0.1620549223 -0.1442566169 -2.419212225e-22)
(-0.132704445 -0.1598515265 0)
(-0.09577758339 -0.1563082726 0)
(-0.05601554126 -0.1302957564 0)
(-0.02147826974 -0.08380993241 0)
(-0.001500354351 -0.02665474712 5.571088063e-22)
(-0.0002874067823 0.0401595613 0)
(-0.01169348487 0.09543324319 -3.492633218e-22)
(-0.02924404885 0.1294035671 8.93196923e-22)
(-0.05060885032 0.1469258044 3.616788891e-22)
(-0.07369990089 0.1519709143 0)
(-0.09745030578 0.1472723544 -3.862124312e-22)
(-0.1211055473 0.1344165065 -3.174116287e-23)
(-0.1440308729 0.1141375441 3.332815542e-22)
(-0.1655126105 0.08669924698 1.769321696e-22)
(-0.184623085 0.05229138658 -4.059808815e-23)
(-0.2001307988 0.01141823446 1.656777335e-23)
(-0.2104604727 -0.03471233918 -8.264306118e-24)
(-0.2137191097 -0.08376302599 3.371532385e-22)
(-0.2078198573 -0.1318724668 0)
(-0.1908222549 -0.1732720756 2.420380992e-22)
(-0.1616321452 -0.2002556779 5.773133206e-24)
(-0.1211651182 -0.204008714 -5.859227699e-24)
(-0.0738491333 -0.1772091491 1.547908677e-22)
(-0.02971752598 -0.1188623974 -5.4338278e-24)
(-0.00217951091 -0.04005339043 0)
(-0.0002117486736 0.04671515832 0)
(-0.01125003663 0.1105468538 0)
(-0.0281562184 0.1497315658 -5.022336912e-22)
(-0.04874465892 0.1701474852 -1.880855571e-23)
(-0.07100060212 0.176621607 2.038220739e-23)
(-0.0939941301 0.1724490873 -2.014155101e-23)
(-0.1171429573 0.1594843324 -2.316703466e-23)
(-0.1400174328 0.1384786852 -3.029559227e-22)
(-0.162132366 0.109515246 6.698482513e-23)
(-0.1827953995 0.07245202263 4.512789195e-23)
(-0.2009830719 0.02735034736 -4.577322309e-23)
(-0.2152265424 -0.02508511846 0)
(-0.2235556976 -0.08298098163 -7.838220996e-23)
(-0.2234626136 -0.1427226545 0)
(-0.212067235 -0.1981786031 -3.739228065e-22)
(-0.1867426715 -0.2400736617 5.244338443e-22)
(-0.1464430636 -0.2560736877 0)
(-0.09394507123 -0.2331177669 -1.493471182e-22)
(-0.04021969055 -0.1639591681 1.937009884e-22)
(-0.003201063892 -0.0586098486 -3.410991259e-22)
(-0.0002015794327 0.05297466417 0)
(-0.01067278977 0.1248143589 9.182349045e-22)
(-0.02628477574 0.1687385849 -2.440533963e-23)
(-0.04501148309 0.1916412813 9.192815164e-22)
(-0.06494644547 0.1992880379 -2.51192848e-23)
(-0.08536681328 0.1956069234 2.838663958e-23)
(-0.105931161 0.1827859966 -2.812751663e-23)
(-0.1264931022 0.1616566247 -1.660815785e-23)
(-0.1469004694 0.1321755008 -5.259912867e-22)
(-0.1668466966 0.09389668646 -8.906094814e-24)
(-0.1857312472 0.04640682593 9.659641338e-24)
(-0.2024791236 -0.01023607906 3.31291673e-22)
(-0.2154163382 -0.07499585845 -5.820406752e-22)
(-0.2220216646 -0.1450283796 0)
(-0.2188036341 -0.2146728904 8.886688633e-22)
(-0.2016258652 -0.2739982046 -4.940308227e-22)
(-0.1668637612 -0.3075776699 -1.572036934e-23)
(-0.1140217165 -0.295377931 0)
(-0.05288458622 -0.2195778312 -1.889652663e-22)
(-0.004749153513 -0.08377183293 3.360058352e-22)
(-0.0003642440513 0.05902212698 1.550928642e-23)
(-0.0104960485 0.1379855188 -8.763700837e-22)
(-0.02441453128 0.1856768049 -1.157004344e-21)
(-0.04026818275 0.2101344957 -8.628496184e-22)
(-0.05630849677 0.2182310604 0)
(-0.07214999648 0.2146157462 3.513619397e-23)
(-0.08779385641 0.2018767299 -7.294484121e-23)
(-0.1034581148 0.1809990466 5.867583061e-23)
(-0.1194004007 0.151899177 3.021202254e-22)
(-0.1357953123 0.1139154025 -1.1281414e-23)
(-0.1526104799 0.06621534806 0)
(-0.1694543873 0.008178885014 -3.603752053e-22)
(-0.1852782024 -0.0601577637 7.515349242e-22)
(-0.198046764 -0.1372722774 8.831365395e-22)
(-0.2043561734 -0.2189235142 -5.296307821e-22)
(-0.1990988368 -0.2959683894 5.162404228e-22)
(-0.1760611044 -0.3514041861 1.078062257e-23)
(-0.1300892082 -0.3584120621 -1.095374556e-23)
(-0.06688795532 -0.2843252089 -8.220296014e-23)
(-0.007083293931 -0.1169953891 0)
(-0.0009096272168 0.06539957319 -1.911402469e-23)
(-0.01167634229 0.1502794144 -1.326912955e-21)
(-0.02388973982 0.2000628118 1.094185984e-21)
(-0.03601481334 0.224418167 6.734655722e-22)
(-0.04657493555 0.2316554068 6.014383635e-22)
(-0.05577261009 0.2272364586 6.643678594e-22)
(-0.06411499485 0.2141753449 -4.458481598e-23)
(-0.07227840859 0.1936481988 -3.46119975e-22)
(-0.08097271814 0.1656024966 2.152080588e-22)
(-0.09087504072 0.1292712156 0)
(-0.1025579192 0.08353196088 0)
(-0.1163653584 0.02720170905 2.655317088e-22)
(-0.132161967 -0.04061817813 8.194482815e-23)
(-0.1489279927 -0.1200108038 -2.821465113e-22)
(-0.1641308029 -0.20892795 -5.411086516e-23)
(-0.1727896144 -0.3006970187 1.301971727e-22)
(-0.1670323684 -0.3793305162 -3.400249483e-22)
(-0.1365298561 -0.4136427193 -1.596153836e-23)
(-0.08018263229 -0.3538304191 8.209061887e-23)
(-0.01050761532 -0.1594119916 -6.032581297e-22)
(-0.002260548066 0.0734882554 0)
(-0.0158040587 0.1626504791 2.145794835e-21)
(-0.02665154687 0.2117879493 0)
(-0.03422515445 0.2333918088 -1.351757568e-21)
(-0.03759632153 0.2377738155 6.184203087e-23)
(-0.03799967447 0.2312529045 -6.19283373e-22)
(-0.03668584948 0.2171881194 -4.756107829e-22)
(-0.03489381676 0.1968924872 8.300941882e-22)
(-0.03379199414 0.1703340739 -1.885625845e-22)
(-0.0345024334 0.1367226592 0)
(-0.03811936328 0.0947978475 0)
(-0.04565344635 0.04304434426 2.410694592e-23)
(-0.05791138162 -0.02013615522 -6.00703034e-22)
(-0.07514906098 -0.09620483003 -4.309442729e-22)
(-0.09645446526 -0.185553998 4.637753604e-22)
(-0.1183484975 -0.285355189 -6.488471792e-22)
(-0.1332731909 -0.383836992 9.119347438e-23)
(-0.1265360734 -0.4504341147 2.939767495e-23)
(-0.08899187744 -0.4198519071 5.660619691e-22)
(-0.01526919831 -0.2111710135 6.021213244e-22)
(-0.005180942107 0.08598016812 0)
(-0.02525602116 0.1766280201 1.46559174e-22)
(-0.03483526866 0.2205943521 -4.916992445e-23)
(-0.03640204641 0.2354837367 7.642669321e-22)
(-0.03018740087 0.2343384499 -7.005127521e-22)
(-0.01916891711 0.224158457 4.746316499e-23)
(-0.005618642615 0.2083511773 -1.01858798e-22)
(0.008565873947 0.1881233505 -3.38976753e-22)
(0.02179500727 0.1633910335 2.062760255e-22)
(0.03262400556 0.1333247782 0)
(0.03958092002 0.09664183188 0)
(0.04116669009 0.05174182618 -2.90259541e-22)
(0.03578164568 -0.003254030496 0)
(0.02197894345 -0.07058226617 -5.512085104e-22)
(-0.001267410855 -0.152572336 -1.492167885e-23)
(-0.03310685774 -0.2505939059 2.559632997e-23)
(-0.0690940828 -0.3599331108 2.202949539e-22)
(-0.09227939917 -0.4575414373 4.789150628e-24)
(-0.0871813585 -0.4698118042 -5.789601207e-22)
(-0.0210313194 -0.2698964875 0)
(-0.01111633788 0.108597471 0)
(-0.0424894383 0.1947146483 -8.848242658e-22)
(-0.04795632988 0.2258184756 -5.410920249e-22)
(-0.03919709706 0.2282121003 4.543704652e-22)
(-0.01878070699 0.2182312544 -1.710038305e-24)
(0.007661348116 0.202820626 -4.560913347e-23)
(0.03667657443 0.1847609215 5.696495263e-22)
(0.06582639623 0.1647112077 -2.766806279e-23)
(0.09326764932 0.1423127081 -2.069718393e-22)
(0.1173855912 0.1166278482 3.142129337e-23)
(0.136542802 0.08641216357 -3.425835622e-23)
(0.148963837 0.05017765524 -3.690520216e-23)
(0.1525248249 0.006160230418 3.205573236e-22)
(0.144934305 -0.04796025003 6.119493372e-22)
(0.1235139104 -0.1153044179 -5.101072376e-22)
(0.08633362905 -0.2004188793 -1.615995297e-22)
(0.03198940221 -0.3067801287 1.531361062e-22)
(-0.02362229711 -0.4239831808 7.293739126e-23)
(-0.06492456401 -0.487160672 1.913302354e-21)
(-0.02509977663 -0.3291539998 2.955003622e-21)
(-0.02004678901 0.1460728802 -4.390137549e-23)
(-0.06416425397 0.2112954943 4.417309866e-23)
(-0.050702925 0.2177295797 1.000169011e-21)
(-0.01934213748 0.2014672076 -8.269197265e-24)
(0.02414290716 0.1809066763 0)
(0.0715389467 0.1606924236 4.363591827e-23)
(0.1190676628 0.141648821 -2.273781182e-22)
(0.1644738011 0.1233177254 -9.027668156e-23)
(0.2062220888 0.104811595 3.680620081e-23)
(0.2429613389 0.08507157786 -1.701611018e-23)
(0.2732179883 0.06296191121 3.429888833e-23)
(0.2952511412 0.03726354482 -6.59253829e-23)
(0.3066949562 0.006535748198 -9.303741862e-23)
(0.3049720183 -0.03087704508 1.517013722e-22)
(0.2863921499 -0.07786236562 0)
(0.2470556331 -0.1399296608 1.505541593e-22)
(0.181091272 -0.2266298039 2.560016782e-22)
(0.09604379161 -0.3443892844 0)
(-0.006697979385 -0.4552207974 -3.675651866e-21)
(-0.01922414148 -0.3777535512 -2.892632661e-21)
(-0.02591947103 0.2276830281 -9.514158776e-22)
(-0.03998317132 0.2238217553 -1.388958302e-22)
(0.03656129619 0.1810584451 -2.335534111e-22)
(0.1090499121 0.1451056269 -1.19371567e-22)
(0.1817183187 0.1172441429 -4.295727661e-23)
(0.2490078372 0.0962786456 9.782851844e-23)
(0.3100320541 0.08002473612 -1.408543295e-22)
(0.3646190422 0.06656790671 1.297133332e-22)
(0.4126232156 0.0544916975 -8.619854433e-23)
(0.4536229953 0.0427090147 1.13218345e-25)
(0.4867859632 0.03032318163 1.52770529e-23)
(0.5107434504 0.01652930507 7.997028775e-23)
(0.5236583544 0.0005368192473 -1.811087444e-22)
(0.5231787407 -0.0186334358 -1.617115777e-22)
(0.5052315624 -0.04286455 -4.262780944e-23)
(0.4658709594 -0.07633216139 0)
(0.3952692522 -0.1286088911 -1.846507718e-22)
(0.2916068054 -0.2208467961 8.14879314e-22)
(0.1197453291 -0.3525016776 1.631606562e-21)
(0.02670542673 -0.3775497707 2.172658332e-21)
(0.2142894921 0.1347447658 9.864938576e-22)
(0.2776312621 0.09870509469 0)
(0.4316593884 0.05810417238 -2.594280353e-22)
(0.5304749994 0.03846264018 -1.741629136e-22)
(0.6016964554 0.02623415526 0)
(0.6571195486 0.0183191892 -6.008884059e-23)
(0.7015207977 0.01313596936 6.377765381e-23)
(0.7376035257 0.009542104918 -1.800088973e-23)
(0.7669360329 0.006804466344 2.885870831e-23)
(0.7902098614 0.00446477078 2.314960127e-23)
(0.8074547738 0.002221365893 0)
(0.8182615452 -0.0001500171108 -2.872964344e-23)
(0.8216495512 -0.002723787517 0)
(0.8162391756 -0.005712622823 2.738055733e-23)
(0.7991332107 -0.009611355844 1.421617904e-23)
(0.7679986237 -0.01500254382 -5.799470877e-23)
(0.7106556006 -0.02502521151 -2.535678516e-22)
(0.6235184141 -0.04204286817 -6.918124986e-22)
(0.4230091001 -0.09182969542 0)
(0.2705674645 -0.1524021907 -2.119486137e-21)
)


// ************************************************************************* //
