/*--------------------------------*- C++ -*----------------------------------*\
  =========                 |
  \\      /  F ield         | OpenFOAM: The Open Source CFD Toolbox
   \\    /   O peration     | Website:  https://openfoam.org
    \\  /    A nd           | Version:  13
     \\/     M anipulation  |
\*---------------------------------------------------------------------------*/
FoamFile
{
    format      ascii;
    class       vectorField;
    location    "11.34";
    object      U_all;
}
// * * * * * * * * * * * * * * * * * * * * * * * * * * * * * * * * * * * * * //


400
(
(9.021367029e-06 -3.430317594e-05 0)
(-0.000661390988 0.0004097381347 -1.523707377e-23)
(-0.002157695785 0.0009080678529 0)
(-0.003990602653 0.001293287135 0)
(-0.005883806441 0.001511483422 6.472389584e-25)
(-0.00764697628 0.001545601152 4.106112941e-24)
(-0.009147088182 0.001401917299 -6.019962177e-24)
(-0.01028503624 0.001103367943 8.993890476e-24)
(-0.01098205018 0.000686792918 -2.225442708e-25)
(-0.0111786178 0.0002014207287 -4.202020132e-24)
(-0.01083944295 -0.0002948932416 6.046758575e-24)
(-0.009964740255 -0.0007371020718 -6.141371412e-23)
(-0.008603016589 -0.001062884528 -6.800113453e-23)
(-0.006859171604 -0.001221357034 -8.063183198e-23)
(-0.00489844361 -0.001184963017 4.772167688e-24)
(-0.002940063473 -0.0009603340552 -4.370186853e-24)
(-0.001233589091 -0.0005961325165 -2.172872758e-22)
(-4.949473593e-05 -0.0001795347359 0)
(0.0004964682095 0.0001604297767 2.37414667e-25)
(0.000217221404 0.0002983257564 -1.395158846e-23)
(-0.0002592957838 0.0008220042763 1.34296513e-25)
(-0.002659752155 0.003333609894 1.533614157e-23)
(-0.006790299301 0.00551280332 1.521448598e-25)
(-0.01174673285 0.006890459152 -8.063539162e-25)
(-0.01683996106 0.007427337072 1.090543117e-24)
(-0.02160053091 0.007175421258 1.189319462e-23)
(-0.02567385405 0.006224713868 2.599187504e-24)
(-0.02878979886 0.004689205333 -8.711083886e-24)
(-0.03073842995 0.002710721953 1.096236187e-23)
(-0.03136866891 0.0004658093058 4.748699178e-24)
(-0.03059543475 -0.001833386568 -6.584474541e-24)
(-0.02842464442 -0.003943838977 2.814752422e-24)
(-0.02498244563 -0.005613472396 4.011367285e-23)
(-0.02053003327 -0.006611964949 -2.05804867e-24)
(-0.01547217569 -0.006773355068 3.97836015e-24)
(-0.01033933018 -0.006043823662 -1.062376758e-22)
(-0.005734596479 -0.004526469156 1.05647793e-22)
(-0.002260346792 -0.002519488295 -5.673677266e-25)
(-0.0002062379241 -0.0005343793567 5.816778762e-25)
(7.981648132e-05 0.0005846514906 0)
(-0.0004101517461 0.002890230422 -2.818163349e-25)
(-0.004560057221 0.008652635937 1.610688689e-23)
(-0.01115744293 0.01300511544 -8.404916634e-24)
(-0.01896552898 0.01551087395 -1.934069428e-25)
(-0.02696650479 0.01624142471 1.900025895e-25)
(-0.03448099329 0.01538267679 3.936298044e-26)
(-0.0409756548 0.01315309029 -2.388509917e-24)
(-0.0460330729 0.009788301034 -5.375350304e-25)
(-0.04932333106 0.005558406878 -1.147930968e-23)
(-0.05060233233 0.0007905142651 0)
(-0.04972425667 -0.004114167398 0)
(-0.04667532368 -0.008695001241 2.799150391e-23)
(-0.04161457548 -0.01245027956 2.949691488e-23)
(-0.034900615 -0.01489593154 -1.759203194e-24)
(-0.02710767134 -0.01564515446 5.265690573e-23)
(-0.01900571936 -0.01450813245 1.027637209e-22)
(-0.01148842469 -0.01159826908 5.006086082e-23)
(-0.00544965703 -0.007427571371 7.626919846e-25)
(-0.001458593525 -0.002966008318 -7.76575004e-26)
(-9.08802465e-05 0.0001888180489 0)
(-0.0004909120584 0.005939248238 -4.053697669e-23)
(-0.006274497416 0.01607082977 -1.600268308e-23)
(-0.01522962037 0.0231247142 8.327084617e-24)
(-0.02577176017 0.02694166964 0)
(-0.03658225253 0.02782049454 0)
(-0.04681011509 0.02614202298 0)
(-0.05577800988 0.02228437969 -9.113290129e-26)
(-0.06294283255 0.01661968123 -1.122071405e-24)
(-0.06785853718 0.009554107859 0)
(-0.07016858926 0.001574820459 1.972423057e-24)
(-0.06963198609 -0.006714383949 3.024932381e-25)
(-0.06616081453 -0.01459576853 -3.033402689e-25)
(-0.05987219594 -0.02125954391 0)
(-0.051146512 -0.02588310427 4.544582344e-23)
(-0.0406628523 -0.02775429552 -5.090164417e-23)
(-0.02939802376 -0.02644182616 -3.288303205e-23)
(-0.01855609283 -0.02199289044 -5.008956549e-23)
(-0.009409470848 -0.0151180079 7.650827159e-25)
(-0.002959668629 -0.007297259477 8.415816146e-23)
(-0.0002296789753 -0.0009023743139 0)
(-0.000519387667 0.00990708332 4.073493173e-23)
(-0.007824436869 0.02546349142 4.854353496e-25)
(-0.01901942477 0.03574871419 -4.743493456e-25)
(-0.03219947178 0.04109149935 0)
(-0.04578143935 0.04214221918 7.469330069e-25)
(-0.05877271989 0.03953734365 -7.365771752e-25)
(-0.0703814704 0.03383392139 3.462346126e-23)
(-0.07995651124 0.02553564382 1.612804505e-23)
(-0.08693341545 0.01516818949 5.390977203e-24)
(-0.09082084093 0.003361559866 -1.974721119e-24)
(-0.09122710299 -0.009087081114 0)
(-0.08790930156 -0.02118364803 4.979508498e-25)
(-0.08084954443 -0.03175772527 1.248460961e-23)
(-0.0703487596 -0.03954937945 -4.788709852e-23)
(-0.05710959745 -0.04337657878 2.237716043e-24)
(-0.04228615919 -0.04239470496 5.304575746e-23)
(-0.02744728602 -0.03642727509 -5.627701434e-25)
(-0.01439811802 -0.02629662996 0)
(-0.004812117209 -0.01401442652 5.301566681e-23)
(-0.0003589528616 -0.00286580712 -2.39815557e-22)
(-0.0005163024453 0.01471541358 9.826824431e-23)
(-0.009201721538 0.03668584815 -4.937576838e-25)
(-0.02246169798 0.05074597272 0)
(-0.03813431656 0.05788475587 0)
(-0.05442013007 0.05922432786 -8.541918499e-23)
(-0.07022029396 0.05571445903 -8.247798591e-23)
(-0.08466018737 0.04810087591 -3.835007841e-23)
(-0.09700096726 0.0369959936 -1.371655796e-23)
(-0.1065612778 0.02300277099 -4.613098761e-24)
(-0.1126906398 0.006845435087 -7.514635741e-24)
(-0.1147924716 -0.01052137363 5.852250973e-24)
(-0.1123823479 -0.02784248845 7.373837988e-24)
(-0.10519167 -0.04354934394 -1.818135572e-23)
(-0.09331050214 -0.05583762224 -1.65757656e-24)
(-0.07734313125 -0.06286509714 0)
(-0.058550888 -0.06311086808 -2.168096196e-23)
(-0.03890196634 -0.05589275162 1.770975327e-25)
(-0.02091130376 -0.04194520065 0)
(-0.007239612113 -0.02380345376 -1.368228464e-22)
(-0.0005135280756 -0.005912098932 5.7027793e-22)
(-0.0004911571808 0.02026064425 -9.759506018e-23)
(-0.01035359444 0.04952524645 2.798812156e-22)
(-0.02540487468 0.06788278787 1.5065234e-22)
(-0.0433128937 0.07713283333 3.552262893e-24)
(-0.06211876587 0.0789758979 -7.180195863e-23)
(-0.0806619814 0.07472577566 8.773534027e-23)
(-0.09802460298 0.06531823558 -3.477180124e-24)
(-0.1134110249 0.05143701059 -1.646462073e-24)
(-0.1260393232 0.03369759386 2.395244979e-24)
(-0.1350941036 0.01283891139 6.768017145e-24)
(-0.1397382799 -0.01010566782 -5.788925712e-24)
(-0.1391718944 -0.03367552925 -8.186722092e-24)
(-0.1327581476 -0.05590670577 -3.183833765e-23)
(-0.1202174394 -0.07436478362 -2.578490469e-23)
(-0.101872904 -0.08633490691 3.419710833e-25)
(-0.07893329141 -0.0892646848 0)
(-0.05370935404 -0.08151442908 0)
(-0.0295655457 -0.06333248827 -2.642207477e-24)
(-0.01055182679 -0.03766048774 2.700804647e-24)
(-0.0007244827313 -0.01043800107 1.008207289e-22)
(-0.0004444369409 0.02639159682 0)
(-0.01119320289 0.06366567883 1.969687242e-22)
(-0.02763054803 0.086782441 8.816382882e-23)
(-0.04734688943 0.0984761375 0)
(-0.06828834748 0.1011150188 1.537601402e-22)
(-0.08928288452 0.09642151095 0)
(-0.1094171895 0.08551983361 -1.38913187e-22)
(-0.1278852769 0.06912173131 6.30729606e-24)
(-0.1438464332 0.04777713496 0)
(-0.1563508081 0.02213517846 0)
(-0.1643292227 -0.006810914178 -1.29932234e-24)
(-0.1666355646 -0.03750014033 -8.556688348e-25)
(-0.1621782132 -0.06765423928 1.39179804e-22)
(-0.1501474271 -0.09419168115 -4.598657047e-23)
(-0.1303445259 -0.11334906 -2.27092281e-24)
(-0.1036389089 -0.1211365549 1.262690551e-24)
(-0.07244929465 -0.1143117952 -1.282608564e-24)
(-0.04098088339 -0.09191683571 0)
(-0.01511129546 -0.05689595825 3.04228098e-24)
(-0.001031216577 -0.0170179503 -9.697108412e-22)
(-0.00037654184 0.03290322332 0)
(-0.01163369424 0.07866912754 -1.115001204e-22)
(-0.02890596318 0.1068950771 -6.101397738e-22)
(-0.04979483028 0.1213301289 -3.694597229e-22)
(-0.07221529352 0.125082309 0)
(-0.09503407363 0.1203256649 4.031257862e-22)
(-0.1173962151 0.1083778589 1.226232812e-22)
(-0.1385477915 0.08994379243 -5.412339827e-24)
(-0.1576623479 0.0654340612 5.385552149e-24)
(-0.1737355322 0.03529723287 0)
(-0.1855330609 0.0003420859615 2.818034112e-23)
(-0.1916188887 -0.03794933991 4.490270875e-24)
(-0.1904439164 -0.07714626363 -1.017855125e-22)
(-0.1805494242 -0.1136365955 7.456986589e-23)
(-0.1609614099 -0.1425650778 -2.288091789e-22)
(-0.1318012925 -0.1581559974 0)
(-0.0951107115 -0.1547758814 0)
(-0.05561075405 -0.1291015679 0)
(-0.02131360573 -0.08309038239 0)
(-0.001484874533 -0.02644433181 5.348060433e-22)
(-0.0002955783538 0.03954977211 0)
(-0.01163417188 0.09399398174 -3.443823061e-22)
(-0.02906825291 0.1274996571 8.80469372e-22)
(-0.05028239817 0.1448585616 3.558576625e-22)
(-0.07321510448 0.1499772509 0)
(-0.09681888321 0.1455289486 -3.78020002e-22)
(-0.1203526377 0.133046896 -3.101910829e-23)
(-0.1431881675 0.1132192434 3.257123283e-22)
(-0.1646124183 0.08627019831 1.727035663e-22)
(-0.1836937326 0.05235603097 -3.960374424e-23)
(-0.1991934959 0.01195371142 1.634016173e-23)
(-0.2095298213 -0.0337512368 -7.999991434e-24)
(-0.212805657 -0.08243792163 3.27676011e-22)
(-0.2069359766 -0.1302602714 0)
(-0.1899907049 -0.1714696476 2.289196949e-22)
(-0.1608919604 -0.1983899463 5.381324055e-24)
(-0.1205708997 -0.2022478394 -5.461576033e-24)
(-0.07345540551 -0.1757602104 1.42496931e-22)
(-0.02954171004 -0.1179291136 -5.071810829e-24)
(-0.002161945057 -0.03975035327 0)
(-0.0002258722283 0.04609044972 0)
(-0.01125960866 0.1090591632 0)
(-0.02813535294 0.1477519335 -4.95172829e-22)
(-0.04866433508 0.1679921977 -1.853870842e-23)
(-0.07084942946 0.1745440184 2.002629631e-23)
(-0.09377715155 0.1706384414 -1.978984154e-23)
(-0.1168773163 0.1580704004 -2.268792783e-23)
(-0.1397256095 0.1375384335 -2.960214147e-22)
(-0.1618354131 0.109080172 6.63045569e-23)
(-0.1825070339 0.07251605816 4.401094752e-23)
(-0.2007054496 0.02787914404 -4.460571371e-23)
(-0.2149503351 -0.0241442189 0)
(-0.2232619915 -0.08169243745 -7.441244034e-23)
(-0.2231307036 -0.1411517787 0)
(-0.2116876422 -0.1963983796 -3.643233067e-22)
(-0.1863294514 -0.2381793866 5.076734215e-22)
(-0.146042966 -0.2542080356 0)
(-0.09363098818 -0.2314934394 -1.374174187e-22)
(-0.04005495079 -0.1628388256 1.813715493e-22)
(-0.003182337244 -0.05821141444 -3.288196114e-22)
(-0.0002208148661 0.05237598717 0)
(-0.01075613111 0.1233624208 9.071778617e-22)
(-0.02643377153 0.1667846661 -2.409462464e-23)
(-0.045204599 0.1895019469 9.075693386e-22)
(-0.06516840808 0.1972257002 -2.476247401e-23)
(-0.08561406458 0.1938198845 2.790949811e-23)
(-0.1062100173 0.1814082601 -2.765472971e-23)
(-0.1268140062 0.160762644 -1.630365109e-23)
(-0.1472713296 0.1317876485 -5.164354375e-22)
(-0.1672664174 0.09399446079 -8.741354638e-24)
(-0.1861846459 0.0469386942 9.48367526e-24)
(-0.202939315 -0.0093387005 3.26169063e-22)
(-0.2158392082 -0.07379936631 -5.71691868e-22)
(-0.222354346 -0.1435934142 0)
(-0.2190027753 -0.2130482495 8.702454826e-22)
(-0.2016703686 -0.2722372107 -4.782793192e-22)
(-0.1667741069 -0.3057728193 -1.522010644e-23)
(-0.1138669633 -0.2937109408 0)
(-0.0527630012 -0.2183382866 -1.768437552e-22)
(-0.004731248215 -0.08328896623 3.239396735e-22)
(-0.0003872805842 0.05849070202 1.532614069e-23)
(-0.01065013144 0.1366558485 -8.658197152e-22)
(-0.02473049984 0.1838540849 -1.144686205e-21)
(-0.04073372139 0.2081190432 -8.518624246e-22)
(-0.05690376054 0.2162848673 0)
(-0.07285964667 0.2129411766 3.462837866e-23)
(-0.08860857913 0.2006097511 -7.186603086e-23)
(-0.1043712916 0.1802108502 5.77855522e-23)
(-0.120403358 0.1516032679 2.970568095e-22)
(-0.1368724445 0.114077245 -1.111085102e-23)
(-0.1537349202 0.0667663372 0)
(-0.170582259 0.009033634054 -3.54723363e-22)
(-0.1863541841 -0.05907728143 7.416523733e-22)
(-0.1990076374 -0.1360289106 8.731336303e-22)
(-0.2051333571 -0.2175496489 -5.202947917e-22)
(-0.1996379974 -0.2944780136 5.087068117e-22)
(-0.1763458247 -0.3498276218 1.035920525e-23)
(-0.1301587933 -0.356866943 -1.05255624e-23)
(-0.06684608099 -0.2830753686 -9.260973695e-23)
(-0.007069764173 -0.1164574161 0)
(-0.0009349078417 0.06497231948 -1.891647462e-23)
(-0.01189032208 0.1491519485 -1.314764574e-21)
(-0.0243514545 0.1984703561 1.082595119e-21)
(-0.03672233464 0.2226275565 6.671499331e-22)
(-0.04750336332 0.2299164381 5.954759491e-22)
(-0.05689151127 0.2257482655 6.57213604e-22)
(-0.06539393639 0.2130726984 -4.401997399e-23)
(-0.07368744697 0.1929992006 -3.421192816e-22)
(-0.08248159683 0.1654153484 2.127421191e-22)
(-0.09245151833 0.1295029005 0)
(-0.1041651635 0.08410351806 0)
(-0.1179589664 0.02801680827 2.631526946e-22)
(-0.1336904751 -0.03965431415 8.273328806e-23)
(-0.1503305942 -0.1189686168 -2.77078633e-22)
(-0.1653379016 -0.2078365911 -5.359849189e-23)
(-0.173731106 -0.2995477548 1.316323952e-22)
(-0.1676614863 -0.3780994682 -3.346105775e-22)
(-0.1368402046 -0.4123718093 -2.041513972e-23)
(-0.08024785579 -0.3527022265 9.248316776e-23)
(-0.01050352487 -0.1588667603 -6.098055461e-22)
(-0.002285956873 0.07319332703 0)
(-0.01605822444 0.1617891663 2.127464813e-21)
(-0.02721802534 0.2105074523 0)
(-0.03511338214 0.2319094674 -1.340506473e-21)
(-0.03877757993 0.2363139639 6.260088988e-23)
(-0.03942750499 0.2300017147 -6.125851095e-22)
(-0.0383060182 0.2162747292 -4.710201758e-22)
(-0.03664946818 0.1963813948 8.212032132e-22)
(-0.03562828987 0.1702347994 -1.863773061e-22)
(-0.03636965475 0.1369925268 0)
(-0.03997217485 0.09535829658 0)
(-0.04745016691 0.04379768437 2.450726751e-23)
(-0.05961586673 -0.01928671698 -5.959543201e-22)
(-0.0767200953 -0.09534380038 -4.276055783e-22)
(-0.0978421781 -0.1847179143 4.616889691e-22)
(-0.1194909805 -0.2845350573 -6.428823658e-22)
(-0.1341187209 -0.3829801675 8.85800564e-23)
(-0.1270344682 -0.4495330201 3.405434799e-23)
(-0.08916308841 -0.418964293 5.679657764e-22)
(-0.01527893578 -0.2106794891 6.086563917e-22)
(-0.005202837913 0.08583144835 0)
(-0.02551719181 0.1760698476 1.471789632e-22)
(-0.03543807209 0.2196786489 -4.885047962e-23)
(-0.0373685887 0.2343659083 7.5861691e-22)
(-0.03149030278 0.2332043095 -6.949132423e-22)
(-0.020750902 0.2231696644 4.707320963e-23)
(-0.007407275683 0.2076256333 -1.016311868e-22)
(0.006651753569 0.1877249574 -3.355742432e-22)
(0.019832937 0.1633326645 2.045985271e-22)
(0.03067807526 0.1335741901 0)
(0.03770505388 0.09713263245 0)
(0.03940247327 0.05238637115 -2.882759769e-22)
(0.03414481156 -0.002550386859 0)
(0.02049019886 -0.06988928382 -5.494557545e-22)
(-0.002582907469 -0.1519433388 -1.384858245e-23)
(-0.03421334258 -0.2500342658 2.549023468e-23)
(-0.06998119742 -0.359393196 2.176594455e-22)
(-0.09286028572 -0.4570230091 4.871979941e-24)
(-0.08741550336 -0.4692287989 -5.810711422e-22)
(-0.02105612452 -0.2695163478 0)
(-0.01112799682 0.1085837828 0)
(-0.04270341037 0.1944509547 -8.79745839e-22)
(-0.04848560572 0.2252719003 -5.390808669e-22)
(-0.04007942549 0.2274710176 4.526808419e-22)
(-0.02000257812 0.2174364652 -1.735095342e-24)
(0.006152071821 0.2020972092 -4.535767293e-23)
(0.03495857204 0.1842101359 5.654517853e-22)
(0.06398779906 0.1643957915 -2.745617907e-23)
(0.09139568356 0.1422510025 -2.052549369e-22)
(0.1155557995 0.1168035886 3.120673272e-23)
(0.1348148065 0.08677954617 -3.405653652e-23)
(0.1473770554 0.05067118214 -3.674215084e-23)
(0.1511090142 0.006708384737 3.19417905e-22)
(0.1436996666 -0.04743300275 6.100767817e-22)
(0.1224502712 -0.1148521554 -5.089730027e-22)
(0.08546019891 -0.2000628938 -1.619435796e-22)
(0.03121779776 -0.3065057354 1.522096248e-22)
(-0.02417490608 -0.4237072796 7.292067672e-23)
(-0.0651437751 -0.4868486009 1.911959632e-21)
(-0.02513026391 -0.3289103053 2.953494028e-21)
(-0.02003901322 0.1461445144 -4.37767341e-23)
(-0.0642628583 0.2112506073 4.40476771e-23)
(-0.05101924227 0.2174905915 9.973622503e-22)
(-0.01993249247 0.2010649005 -7.587506704e-24)
(0.02325772851 0.1804267807 0)
(0.0703796233 0.1602258515 4.341454836e-23)
(0.117698756 0.1412714727 -2.259733429e-22)
(0.1629717511 0.1230813182 -8.967501549e-23)
(0.2046705409 0.104738562 3.654716329e-23)
(0.2414397148 0.08515821808 -1.689900403e-23)
(0.2717937393 0.06318142794 3.409683014e-23)
(0.2939803881 0.03757256624 -6.562461836e-23)
(0.3055864184 0.006882472801 -9.263176504e-23)
(0.3040361136 -0.03054000181 1.514508569e-22)
(0.2856311427 -0.07758122954 0)
(0.2464503054 -0.1397351423 1.51001751e-22)
(0.1805998336 -0.2265444908 2.557145612e-22)
(0.09567597806 -0.3442779456 0)
(-0.006884667912 -0.4551045318 -3.673072776e-21)
(-0.01925482764 -0.377646419 -2.891149599e-21)
(-0.02589734759 0.227758396 -9.507237922e-22)
(-0.03994794942 0.2238738796 -1.386715158e-22)
(0.0365222029 0.1810130174 -2.328783604e-22)
(0.1088526901 0.1449631796 -1.189133609e-22)
(0.1813119554 0.1170366312 -4.289615902e-23)
(0.2483778317 0.09605843119 9.747202831e-23)
(0.3092062277 0.07983483905 -1.401126879e-22)
(0.3636502872 0.06644024591 1.288782279e-22)
(0.4115799718 0.05444289462 -8.559711289e-23)
(0.4525771199 0.04274067281 1.130845183e-25)
(0.4858023907 0.0304229353 1.519789683e-23)
(0.5098724332 0.01667553746 7.960608758e-23)
(0.5229387966 0.0006923334179 -1.805391176e-22)
(0.5226312439 -0.01848076198 -1.614588939e-22)
(0.504828573 -0.04274053439 -4.262206897e-23)
(0.4655873266 -0.07625382528 0)
(0.3950633751 -0.1285846201 -1.839292323e-22)
(0.2914513042 -0.2208388432 8.140990031e-22)
(0.1196517591 -0.3524950409 1.630410731e-21)
(0.02668177641 -0.3775357383 2.172036911e-21)
(0.2143125192 0.1347674007 9.857302442e-22)
(0.2777031093 0.09873416965 0)
(0.4317396138 0.05811780622 -2.590855954e-22)
(0.5305086412 0.03845821922 -1.739884873e-22)
(0.6016362576 0.02621575676 0)
(0.6569426879 0.01829592715 -5.989270997e-23)
(0.7012332833 0.01311572849 6.343218007e-23)
(0.7372322286 0.009531016106 -1.78690998e-23)
(0.7665207251 0.006805656588 2.864977971e-23)
(0.7897943672 0.004478401376 2.298801765e-23)
(0.8070793291 0.002244989512 0)
(0.8179558236 -0.0001200608171 -2.858990206e-23)
(0.82143115 -0.002691527753 0)
(0.8161119549 -0.005688390721 2.732171826e-23)
(0.7990783399 -0.009597040291 1.426985143e-23)
(0.7679923012 -0.01499850389 -5.790138138e-23)
(0.7106680725 -0.02503136787 -2.531331253e-22)
(0.6235263168 -0.04204993416 -6.912015122e-22)
(0.4230081196 -0.09183720377 0)
(0.2705652029 -0.1524055966 -2.11887975e-21)
)


// ************************************************************************* //
