/*--------------------------------*- C++ -*----------------------------------*\
  =========                 |
  \\      /  F ield         | OpenFOAM: The Open Source CFD Toolbox
   \\    /   O peration     | Website:  https://openfoam.org
    \\  /    A nd           | Version:  13
     \\/     M anipulation  |
\*---------------------------------------------------------------------------*/
FoamFile
{
    format      ascii;
    class       volScalarField;
    location    "31";
    object      p;
}
// * * * * * * * * * * * * * * * * * * * * * * * * * * * * * * * * * * * * * //

dimensions      [0 2 -2 0 0 0 0];

internalField   nonuniform List<scalar> 
400
(
-9.389576165e-10
-0.0005206430366
-0.001153308066
-0.001639540629
-0.001860756705
-0.001768500607
-0.001339421194
-0.0005637717961
0.0005483885026
0.001952627982
0.003555540244
0.005208601308
0.00671879021
0.007879450514
0.008519420188
0.00855850514
0.008050403373
0.00719701497
0.006324363655
0.005776577791
0.0005273092363
-1.129602339e-05
-0.0005683468783
-0.0009557992657
-0.001119643533
-0.001033601148
-0.000677711326
-3.818421177e-05
0.0008841259727
0.002059462039
0.003414733132
0.004826649354
0.006128792179
0.007139172618
0.007704795396
0.007752681926
0.007327604515
0.006597498135
0.00581917469
0.005261544576
0.001184696692
0.0005091039695
-7.951087865e-05
-0.0004336208504
-0.000582689805
-0.0005342342033
-0.0002742711433
0.0002182879941
0.0009582562245
0.001937019524
0.003104710345
0.004358932321
0.005547733134
0.006493503602
0.007037200156
0.007091736179
0.006681908732
0.00594431147
0.005081697572
0.004354718221
0.001654537422
0.0007828522262
7.973649581e-05
-0.0003168037524
-0.0005114525764
-0.0005442349566
-0.0004050942661
-6.118291901e-05
0.0005239748669
0.001368145318
0.00244619733
0.003671598489
0.0048927074
0.005913213777
0.006538579675
0.006638713972
0.006200592428
0.005333898169
0.004223441669
0.003197455843
0.001686686965
0.0006161195265
-0.0002275495935
-0.0007095072742
-0.0009985033386
-0.001159694874
-0.001181096356
-0.001012112862
-0.0005879349952
0.0001426773879
0.001185701615
0.002474187315
0.003853530408
0.005095669627
0.005945911619
0.006198545781
0.005772718725
0.004739097851
0.003284703809
0.00186453917
0.001074353718
-0.0001741836413
-0.001160410708
-0.001756490994
-0.002185623492
-0.00253030824
-0.002770466439
-0.002831575526
-0.002612774645
-0.002018930068
-0.0009999890762
0.0004112569826
0.002065423846
0.003699770417
0.004977404019
0.005575841557
0.005296938101
0.00413491471
0.00227687698
0.0003646423517
-0.000356844825
-0.001752040287
-0.002874777793
-0.003611062034
-0.004230286758
-0.004826391334
-0.005367039088
-0.005748969964
-0.005827277351
-0.005449057025
-0.004498573121
-0.002952955625
-0.0009273495962
0.001291696732
0.003270032056
0.004519164446
0.004647730148
0.003496441213
0.001214377422
-0.001301205581
-0.002742423436
-0.004246738146
-0.005496178436
-0.00639844856
-0.007262388927
-0.008190629934
-0.009138009861
-0.00997079113
-0.01049365008
-0.01048129967
-0.009726868844
-0.008108931647
-0.00566841716
-0.002678605919
0.0003346522095
0.002669937862
0.003638991341
0.002794351223
0.0001454510319
-0.003086626587
-0.006167595341
-0.007738810166
-0.009099887716
-0.01018805201
-0.01134752383
-0.01269133192
-0.01416573659
-0.01560944516
-0.01677441399
-0.0173506114
-0.01701216817
-0.01549354247
-0.01269672634
-0.008813492178
-0.004417131108
-0.0004423332326
0.002009038216
0.00199757381
-0.000811414858
-0.004839119101
-0.01065771825
-0.01224932698
-0.01369473121
-0.01496763815
-0.01644916024
-0.01827065739
-0.02037955589
-0.02259530628
-0.0246208929
-0.02605609503
-0.02643477103
-0.02530268211
-0.02235042626
-0.017587948
-0.01153704292
-0.005323135892
-0.0005498700898
0.001092538803
-0.001417948267
-0.006213612348
-0.01617791491
-0.01773795154
-0.01921430522
-0.02062321768
-0.02239561838
-0.02469794492
-0.02749376563
-0.03059569657
-0.03366710011
-0.03622126781
-0.03764399775
-0.03726225504
-0.03449530965
-0.029056067
-0.02126523174
-0.01230192644
-0.004264488265
0.0001532150028
-0.001238658277
-0.00654125109
-0.02265116296
-0.02411689005
-0.02552160216
-0.02693196329
-0.02886357904
-0.03154703372
-0.03498041769
-0.03898193427
-0.0431858555
-0.04702905402
-0.04975752239
-0.05048006437
-0.04829070132
-0.0425367631
-0.03316579118
-0.02118082462
-0.009009733339
-0.0004857901268
0.0004933178648
-0.004632852275
-0.03000671873
-0.0312870127
-0.03242945482
-0.03357152089
-0.03538676253
-0.03821404157
-0.0421028517
-0.04688188966
-0.05215958741
-0.05730381259
-0.06143363353
-0.06345227415
-0.06215545583
-0.05647039267
-0.0458494965
-0.03085987438
-0.01392872686
7.639619743e-05
0.005113976149
0.001503635959
-0.03828119487
-0.03920198853
-0.0397322757
-0.04014103628
-0.04139016194
-0.04398089698
-0.04801801768
-0.0533272613
-0.05947676381
-0.065758668
-0.07117167952
-0.07443635701
-0.07407962273
-0.06863680013
-0.05702674427
-0.0391862561
-0.01712854469
0.003660207591
0.01487727444
0.01502298122
-0.0478210898
-0.04797076635
-0.04724003629
-0.04618465318
-0.04624475358
-0.04811754919
-0.05193016635
-0.05746059156
-0.06419609007
-0.07132380218
-0.07770850674
-0.08189425372
-0.08216712334
-0.07672284004
-0.06399522315
-0.04324007209
-0.01571124585
0.0131623506
0.03320729461
0.04046284475
-0.05962966832
-0.05802611998
-0.05482340611
-0.05122903634
-0.04935316625
-0.05001782911
-0.053264939
-0.05873846678
-0.06577689523
-0.07341190684
-0.08033890584
-0.08490607793
-0.08515842389
-0.07897905868
-0.06438252795
-0.04001479155
-0.006223519283
0.03234614291
0.06451369579
0.08328061058
-0.07595572877
-0.07044077308
-0.06245427005
-0.05482431858
-0.05024622344
-0.04932138785
-0.05178971199
-0.05703344739
-0.06415987588
-0.07198636083
-0.07899797637
-0.08331584633
-0.0827169985
-0.07474163053
-0.05696395539
-0.02743717886
0.01442320624
0.06537087517
0.1142822813
0.1500700215
-0.1039409544
-0.08774595375
-0.06987192463
-0.05621824811
-0.04832552665
-0.04567441156
-0.04738028743
-0.05241005567
-0.05955071178
-0.06736942723
-0.07413186527
-0.07772912419
-0.07566269157
-0.06507217762
-0.04293660771
-0.006404103392
0.04650044588
0.1151016658
0.1913001708
0.2581003687
-0.1757939656
-0.1147398552
-0.07356171188
-0.05189943004
-0.04119612799
-0.03753320187
-0.03914298729
-0.04448396585
-0.05197333668
-0.05996826302
-0.06660171932
-0.06961578507
-0.06632169917
-0.05352040259
-0.02746982475
0.01618643716
0.08243868737
0.1770755981
0.3051175395
0.4524638373
-0.3556661362
-0.155107739
-0.07036463746
-0.04277926076
-0.03135831628
-0.02756355063
-0.02965759823
-0.03574409265
-0.04390565397
-0.05236401298
-0.05922197355
-0.06222071772
-0.05862527025
-0.04509203169
-0.01729922114
0.03064952517
0.108194786
0.2331099231
0.4345628089
0.7356489685
)
;

boundaryField
{
    movingWall
    {
        type            zeroGradient;
    }
    fixedWalls
    {
        type            zeroGradient;
    }
    frontAndBack
    {
        type            empty;
    }
}


// ************************************************************************* //
