/*--------------------------------*- C++ -*----------------------------------*\
  =========                 |
  \\      /  F ield         | OpenFOAM: The Open Source CFD Toolbox
   \\    /   O peration     | Website:  https://openfoam.org
    \\  /    A nd           | Version:  13
     \\/     M anipulation  |
\*---------------------------------------------------------------------------*/
FoamFile
{
    format      ascii;
    class       scalarField;
    location    "31";
    object      p_all;
}
// * * * * * * * * * * * * * * * * * * * * * * * * * * * * * * * * * * * * * //


400
(
4.332517082e-07
-0.0005470079683
-0.0008890586253
-0.001016548087
-0.0009376907901
-0.0006848356986
-0.0002955482039
0.0001941807536
0.0007478206398
0.00132488041
0.001879718411
0.002359479222
0.002708772545
0.002874507441
0.002815153319
0.002512716517
0.001987666005
0.001297138531
0.0006382129004
4.231205831e-05
0.0005886445373
7.347740996e-06
-0.0003563919117
-0.0004987202873
-0.0004680673571
-0.0002910045409
3.088031119e-06
0.0003849256983
0.0008231016399
0.001280346937
0.001716810924
0.002081336725
0.002323554092
0.002396100723
0.002265109825
0.001921810183
0.001392949004
0.0007435795268
0.0001459339567
-0.0005167602716
0.0009528965633
0.000308491689
-9.276695069e-05
-0.0002391017305
-0.0002329813882
-0.0001044813248
0.0001223558346
0.0004262397409
0.0007834394641
0.001161950157
0.001529972614
0.001833374101
0.002022224981
0.00204780299
0.001874973692
0.00149392145
0.0009286261053
0.0002356453737
-0.0004628273752
-0.001299806654
0.0009766026784
0.0002584406398
-0.0001918117321
-0.0003441130581
-0.0003533788802
-0.0002563984739
-7.380878294e-05
0.000181794732
0.0004968674274
0.0008511736341
0.001203520634
0.001510992701
0.001712791041
0.001748384304
0.001568903651
0.00115096191
0.0005063800612
-0.0003181052288
-0.001233441532
-0.00238424367
0.0004809380928
-0.0002845437128
-0.0007634462138
-0.0009151494305
-0.0009361774477
-0.0008677541467
-0.0007248479106
-0.0005079111994
-0.0002166623256
0.0001396495355
0.0005305909242
0.0009078907858
0.001200326834
0.001327014575
0.001211539435
0.000800703314
8.045568658e-05
-0.000917142459
-0.002127129096
-0.003655627868
-0.0006859025024
-0.001466687857
-0.001955733629
-0.002106785488
-0.002149562861
-0.002126211826
-0.002041828702
-0.001879202795
-0.001617083447
-0.001245045825
-0.0007786286243
-0.0002623699418
0.0002211100354
0.0005619818846
0.0006383334363
0.0003420302191
-0.0003925264502
-0.001563562308
-0.003134346451
-0.005141579953
-0.002661357874
-0.003423072353
-0.003914937881
-0.004080314352
-0.004177678144
-0.004246726062
-0.00427773893
-0.004228678004
-0.004047068661
-0.00368911128
-0.003140255753
-0.002426257364
-0.001633014346
-0.0009029461375
-0.0004243366428
-0.0003982003516
-0.0009877454567
-0.002260083398
-0.004232240301
-0.006827813569
-0.005554546066
-0.006269470447
-0.006767757831
-0.006981703327
-0.007195087946
-0.00744297814
-0.007696675172
-0.007881731932
-0.007901690492
-0.007660126941
-0.007086857792
-0.006159002173
-0.004943256826
-0.003604381928
-0.002413454318
-0.001714038668
-0.001842725785
-0.003014538147
-0.005367969292
-0.008661757813
-0.009434760029
-0.01008109234
-0.01059795977
-0.01091019756
-0.01132559494
-0.01187547024
-0.01251083557
-0.01311919827
-0.0135473472
-0.01362290991
-0.01318202847
-0.01212067328
-0.01042758277
-0.008256121894
-0.005955902357
-0.004061486613
-0.003189756818
-0.003842659634
-0.006426053349
-0.01049123581
-0.01431651536
-0.01487550549
-0.01542249183
-0.015881731
-0.01658956152
-0.01757968306
-0.01878653068
-0.02005864822
-0.02117712277
-0.02187316717
-0.02185694065
-0.02087182371
-0.0187714873
-0.01561966963
-0.01179465416
-0.008036928779
-0.005359498106
-0.004759763942
-0.007180786102
-0.01197886318
-0.02015400494
-0.02060423626
-0.0211744238
-0.02179642146
-0.02285176712
-0.02439001188
-0.02633886656
-0.02851323758
-0.03062716515
-0.03230308895
-0.03309483981
-0.03254028859
-0.030282072
-0.02617828171
-0.0205244911
-0.0142035365
-0.008691161334
-0.00572624372
-0.007218895779
-0.01246604176
-0.02685601463
-0.0271617791
-0.02770221472
-0.02842262384
-0.02978881287
-0.03188873762
-0.03465850842
-0.03788925605
-0.04123352724
-0.04420464209
-0.04618771083
-0.04647836083
-0.04446266705
-0.03965962632
-0.03212062724
-0.02269836811
-0.01326619302
-0.00648556888
-0.005808270828
-0.01076486968
-0.03433436232
-0.03441777728
-0.03478911608
-0.03540419318
-0.03689149372
-0.03940963265
-0.0429196617
-0.04719728231
-0.0518396635
-0.05625796972
-0.05967932377
-0.06119049009
-0.05977912382
-0.05465538258
-0.04544067392
-0.03269933085
-0.01845272725
-0.006245550546
-0.001673606914
-0.004873248935
-0.04260949768
-0.042279075
-0.04219529585
-0.04229561197
-0.04351334931
-0.04611603286
-0.05009923565
-0.0552199941
-0.06101466647
-0.06679577319
-0.07163972012
-0.07441262861
-0.07383220193
-0.06867453643
-0.05807161393
-0.04206149998
-0.02243972208
-0.003256901843
0.007347380345
0.00834176597
-0.0520100033
-0.05076066394
-0.04967748966
-0.04857858657
-0.04892644535
-0.05111986353
-0.05517254765
-0.06079588568
-0.06743518523
-0.07428955101
-0.08028243551
-0.08407590272
-0.08413035422
-0.07883726023
-0.06684254055
-0.04752316183
-0.02212719968
0.005502056459
0.02471565155
0.03352768168
-0.0636556089
-0.06018891409
-0.05709706437
-0.05376411566
-0.0524652555
-0.05367991637
-0.05736474924
-0.06313794178
-0.07026240395
-0.07780086612
-0.08449256408
-0.08878579447
-0.08889813885
-0.0828394364
-0.06885054236
-0.04562057901
-0.01375126727
0.02441716365
0.05553991426
0.07735614893
-0.08018617765
-0.07107474314
-0.06412100897
-0.05716531965
-0.05343147999
-0.05321555866
-0.05625930581
-0.06191432056
-0.06925945822
-0.07711744606
-0.0840127179
-0.08815219234
-0.08748064655
-0.07965639617
-0.06247926868
-0.03405020116
0.005565167072
0.05859437173
0.1058233996
0.1480681052
-0.1105075817
-0.08585489732
-0.07160687881
-0.05897192477
-0.05191433339
-0.04988407665
-0.05210387801
-0.05751002343
-0.0648608413
-0.07270972203
-0.07934114778
-0.08271446103
-0.08052021313
-0.0698871389
-0.04823222969
-0.01272228477
0.03823647994
0.10713245
0.1779790125
0.2564768496
-0.1684377757
-0.09990907425
-0.07500918631
-0.05479882407
-0.04461997388
-0.04158650498
-0.04371912953
-0.04938305163
-0.05701870205
-0.0649722696
-0.07136314161
-0.07398142561
-0.07013023977
-0.05701374485
-0.03102837049
0.01192965054
0.07559982698
0.1664045908
0.2761623684
0.4377046338
-0.3984290586
-0.1381002298
-0.07497135585
-0.0470893841
-0.03355046208
-0.03003126667
-0.03280346655
-0.03926627186
-0.04756005523
-0.05594060426
-0.06250162066
-0.06503069681
-0.06099594877
-0.04696976466
-0.01875657824
0.0299357837
0.1069560253
0.2334276081
0.4198805615
0.7800237445
)


// ************************************************************************* //
