/*--------------------------------*- C++ -*----------------------------------*\
  =========                 |
  \\      /  F ield         | OpenFOAM: The Open Source CFD Toolbox
   \\    /   O peration     | Website:  https://openfoam.org
    \\  /    A nd           | Version:  13
     \\/     M anipulation  |
\*---------------------------------------------------------------------------*/
FoamFile
{
    format      ascii;
    class       surfaceScalarField;
    location    "31";
    object      phi;
}
// * * * * * * * * * * * * * * * * * * * * * * * * * * * * * * * * * * * * * //

dimensions      [0 3 -1 0 0 0 0];

internalField   nonuniform List<scalar> 
760
(
4.295378243e-06
-4.295270325e-06
-3.88888081e-05
4.318462191e-05
-0.0001306929543
9.18036939e-05
-0.0002553620788
0.000124669746
-0.000397130977
0.0001417690062
-0.0005427420791
0.0001456114059
-0.0006804575749
0.0001377148487
-0.0007986996699
0.0001182424663
-0.000885495402
8.679606725e-05
-0.0009291462559
4.365133037e-05
-0.000920098326
-9.046728492e-06
-0.0008536591615
-6.643755234e-05
-0.0007327718031
-0.000120886819
-0.0005698921781
-0.0001628790616
-0.0003868425904
-0.0001830484774
-0.0002118413839
-0.0001750008454
-7.368689362e-05
-0.0001381549566
6.004772564e-06
-7.969172036e-05
2.213601537e-05
-1.613056161e-05
2.213564778e-05
-4.689720583e-05
4.260143852e-05
-0.0002075096047
0.0002037969727
-0.0004686766224
0.0003529706034
-0.0007981019404
0.0004540951355
-0.001161859827
0.0005055265478
-0.001528741702
0.0005124953709
-0.001869606758
0.0004785798972
-0.002155939339
0.0004045752591
-0.002359736857
0.0002905954602
-0.002455488162
0.0001394065517
-0.002424138566
-4.039395329e-05
-0.002258138699
-0.0002324342149
-0.001966426735
-0.0004125958367
-0.001577412068
-0.0005518926216
-0.001138279069
-0.0006221811124
-0.0007090669818
-0.0006042122499
-0.0003511764191
-0.0004960444503
-0.0001117179329
-0.000319149208
-6.360099629e-06
-0.0001214890513
1.577482138e-05
-0.0001105844997
0.0001531861244
-0.0004009233312
0.0004941360093
-0.0008254093946
0.000777456707
-0.001335533533
0.0009642219434
-0.001884879113
0.001054872281
-0.002430443014
0.001058058858
-0.002931428017
0.0009795649917
-0.00334804176
0.0008211911569
-0.003642010113
0.0005845669326
-0.003779385622
0.0002767879108
-0.003735394543
-8.438216771e-05
-0.003500389196
-0.000467439168
-0.003085683404
-0.0008273007158
-0.002527498129
-0.001110075491
-0.001886953632
-0.001262724268
-0.001243909043
-0.001247258504
-0.0006833238863
-0.001056631538
-0.000275289733
-0.0007271841063
-5.349476668e-05
-0.0003432859517
-3.771995678e-05
-0.0001711359477
0.0003243213738
-0.0005866343054
0.0009096351404
-0.001165304374
0.001356125217
-0.001840012467
0.001638930561
-0.002553389965
0.00176824828
-0.00325435004
0.001759018567
-0.003894903365
0.001620119526
-0.004428363979
0.001354654224
-0.004809812247
0.0009660165337
-0.004998964053
0.0004659423235
-0.004965091911
-0.0001182528607
-0.004693305297
-0.0007392247517
-0.004191384629
-0.001329220394
-0.003495714271
-0.001805745384
-0.002674060193
-0.00208437953
-0.00182186214
-0.002099458653
-0.001048756548
-0.00182973749
-0.0004549168232
-0.001321026034
-0.000103199804
-0.0006950038343
-0.0001409198105
-0.0002250828149
0.0005494042955
-0.0007538638426
0.00143841696
-0.001472405125
0.002074665761
-0.002295488155
0.0024620145
-0.00315623282
0.002628992477
-0.0039982045
0.002600990257
-0.004769641333
0.002391556369
-0.005420258892
0.002005272201
-0.005900813549
0.001446571893
-0.006165205172
0.0007303350032
-0.00617482066
-0.0001086390138
-0.005904782131
-0.0010092643
-0.005352249906
-0.001881751739
-0.00454555523
-0.002612440292
-0.003552105085
-0.00307783229
-0.002480250516
-0.003171314957
-0.001468705313
-0.002841281788
-0.0006591983964
-0.002130534377
-0.0001573637441
-0.001196837785
-0.0002982831887
-0.0002707370794
0.0008201410326
-0.0008964004463
0.002064079393
-0.001735593326
0.002913858581
-0.00268770607
0.003414126624
-0.003678522912
0.003619807418
-0.004648835177
0.003571301404
-0.005546047149
0.00328876904
-0.006319071028
0.00277829564
-0.006916269088
0.002043768601
-0.007286020475
0.00110008602
-0.007379909838
-1.475064541e-05
-0.007158341104
-0.001230832733
-0.006600510037
-0.002439581078
-0.005717282267
-0.003495667492
-0.004566335309
-0.004228780162
-0.003263331572
-0.004474318357
-0.001978901547
-0.004125711121
-0.0009098155311
-0.003199618878
-0.0002235149358
-0.001883139034
-0.0005217984813
-0.0003063349641
0.001126476211
-0.001008349874
0.002766093275
-0.00194375701
0.003849264057
-0.003000289335
0.004470657087
-0.004099023731
0.00471854
-0.005180539446
0.004652814405
-0.006194195617
0.004302424957
-0.007090908772
0.003675007145
-0.007819005091
0.002771862209
-0.008322699445
0.001603779228
-0.008543106435
0.0002056578072
-0.008423363909
-0.001350571447
-0.007918137365
-0.002944805419
-0.007010695405
-0.00440310979
-0.00573589211
-0.005503583739
-0.004204534157
-0.006005675262
-0.002615366206
-0.005714880553
-0.001232337537
-0.004582645352
-0.0003110884756
-0.002804391407
-0.0008328880118
-0.0003300538695
0.00145652968
-0.001083845425
0.003519883499
-0.00208536597
0.004850780958
-0.003214622506
0.005599910993
-0.004390592129
0.00589450854
-0.005556060206
0.005818280209
-0.006665073074
0.005411438042
-0.007673669958
0.004683602808
-0.008533480601
0.003631671939
-0.009187721956
0.002258021131
-0.009569728937
0.0005876676301
-0.009605452819
-0.001314843272
-0.009222042546
-0.00332821563
-0.008365980769
-0.005259174481
-0.007033074835
-0.006836490685
-0.005308423884
-0.007730326231
-0.00340275228
-0.007620554947
-0.001651303033
-0.006334095008
-0.0004304486464
-0.004025249029
-0.001263337142
-0.0003406572132
0.001797186214
-0.001118483218
0.004297707983
-0.002150620117
0.00588291491
-0.003312786912
0.006762076317
-0.004524085358
0.007105806998
-0.005731644294
0.007025838035
-0.006896838371
0.006576633025
-0.007984292115
0.005771055166
-0.008953402575
0.004600782159
-0.00975186101
0.003056480495
-0.010311176
0.001146982949
-0.01054547373
-0.001080545922
-0.01035643629
-0.003517255162
-0.009648817176
-0.005966795384
-0.008363270548
-0.008122037141
-0.006530654348
-0.009562941343
-0.004340611384
-0.009810597217
-0.00218516041
-0.008489546895
-0.0005925233132
-0.005617885062
-0.001855860553
-0.0003385847109
0.002135770165
-0.001111951081
0.005071072611
-0.002135508843
0.006906470748
-0.003283054899
0.007909621624
-0.00447558016
0.008298333817
-0.005666478447
0.008216736473
-0.006826984181
0.007737139093
-0.007933918858
0.006877986733
-0.0089596563
0.005626517829
-0.009863591777
0.003960416402
-0.01058466016
0.001868051002
-0.01103546252
-0.0006297463487
-0.01110152409
-0.003451195248
-0.01064872762
-0.006419589853
-0.009552365838
-0.009218396353
-0.007758558255
-0.01135674728
-0.005385998849
-0.0121831542
-0.002838451358
-0.01103709531
-0.0008082267404
-0.007648109298
-0.002664089145
-0.0003274372211
0.002463206573
-0.0010715567
0.005815191592
-0.002047159918
0.007882074657
-0.003127026964
0.008989488614
-0.004235762509
0.009407071825
-0.005335214453
0.00931618917
-0.00640907619
0.008811000155
-0.007449828967
0.007918735625
-0.008447925345
0.006624611465
-0.009382087944
0.004894577627
-0.01020966689
0.002695629887
-0.0108553125
1.589883626e-05
-0.01120539069
-0.003101114882
-0.01110001636
-0.006524961016
-0.01035180243
-0.009966610255
-0.008800117725
-0.01290843442
-0.00643465301
-0.0145486228
-0.003589347474
-0.01388240411
-0.001086784261
-0.01015067844
-0.003750873915
-0.0003159179171
0.002779124245
-0.001016411779
0.006515685877
-0.001909614299
0.008775279979
-0.002866777873
0.009946652828
-0.003818997022
0.01035929285
-0.004740121719
0.01023731372
-0.0056294857
0.009700363131
-0.006498319668
0.008787567328
-0.007359083669
0.007485374941
-0.008215824992
0.005751318275
-0.009053539926
0.003533342809
-0.009826273482
0.0007886310512
-0.01043752035
-0.002489866654
-0.01072868804
-0.006233793363
-0.0104697665
-0.01022553324
-0.009392274149
-0.01398592554
-0.007308404739
-0.01663249391
-0.004372894868
-0.01681791247
-0.001431681882
-0.01309189556
-0.005182554155
-0.0003205903105
0.003099714967
-0.0009822190683
0.00717731503
-0.001768874901
0.00956193865
-0.00254952661
0.01072730594
-0.003268145291
0.01107791315
-0.003917232024
0.01088639824
-0.004516353657
0.01029948277
-0.005098207147
0.009369420189
-0.005699200245
0.00808636812
-0.006351420944
0.006403538226
-0.00707336683
0.004255287509
-0.007856931677
0.001572196381
-0.008646887119
-0.00169991019
-0.009314365828
-0.005566317479
-0.009625872786
-0.009914028219
-0.009234794902
-0.01437699897
-0.007759228409
-0.01810805852
-0.00506455282
-0.01951258563
-0.001832484702
-0.01632396271
-0.007015042183
-0.0003703576565
0.00347007284
-0.001026640539
0.007833597457
-0.001695177383
0.01023047644
-0.00224566025
0.01127778965
-0.002648989698
0.01148124509
-0.002928220217
0.01116562725
-0.003129911108
0.01050117174
-0.003310656794
0.009550166575
-0.003530459681
0.008306172302
-0.003847957931
0.006721033723
-0.00431449433
0.004721820044
-0.00496410949
0.002221811135
-0.005795234423
-0.0008687854946
-0.006738826155
-0.004622725606
-0.007607978982
-0.009044874415
-0.008039935353
-0.0139450418
-0.007492852901
-0.01865514274
-0.005470735266
-0.02153470489
-0.002250627862
-0.01954406951
-0.0092656707
-0.0005132061214
0.003983279131
-0.001232902591
0.00855329363
-0.001775588085
0.01077316136
-0.002029148682
0.01153134902
-0.002020351756
0.01147244993
-0.001821994672
0.01096727103
-0.001516539408
0.01019571628
-0.001186444104
0.009220071264
-0.0009129001846
0.00803262818
-0.0007761230214
0.006584256506
-0.0008543827144
0.004800082608
-0.001219619979
0.002587053422
-0.001925819067
-0.0001625871042
-0.002981886408
-0.00356665738
-0.004294833595
-0.007731926882
-0.005569554896
-0.01267032414
-0.006197036566
-0.01802766199
-0.005325490735
-0.0224062454
-0.002596710734
-0.02227284751
-0.01186238223
-0.0008183384629
0.004801617746
-0.001696334796
0.009431289893
-0.002068439416
0.01114526642
-0.00190182938
0.01136473726
-0.001336241465
0.01090686032
-0.0005213611764
0.01015239093
0.0004156157393
0.00925874021
0.001366615422
0.008269072328
0.002234181924
0.007165060991
0.002924135345
0.005894302008
0.003340565599
0.004383653094
0.003383891623
0.002543726895
0.002953785409
0.0002675131728
0.001964186326
-0.002577054567
0.0003881752122
-0.006155907551
-0.001627833727
-0.01065431077
-0.003549767543
-0.01610573088
-0.004282560383
-0.02167345781
-0.00269635358
-0.02385904897
-0.01455873536
-0.001352732364
0.006154349655
-0.002431420764
0.01050997642
-0.002409383641
0.01112323089
-0.001531752265
0.01048710339
-0.0001530031919
0.009528107711
0.001476819339
0.008522566961
0.003189170165
0.00754639354
0.004860931665
0.006597316062
0.00639083556
0.005635160119
0.007683362742
0.0046017774
0.008637829084
0.003429189921
0.009141181992
0.002040376059
0.00906353445
0.0003451607834
0.008260564542
-0.0017740845
0.006592841277
-0.004488187593
0.004011644881
-0.008073112285
0.0008138642167
-0.01290794729
-0.001903320446
-0.01895627272
-0.002262973697
-0.02349939973
-0.01682171057
-0.002135911972
0.00829026098
-0.002926738273
0.01130079698
-0.001699277596
0.009895768767
0.0005133644673
0.008274461324
0.003084211336
0.00695725956
0.005723802249
0.005882976132
0.008279880522
0.004990317818
0.01065633851
0.004220859652
0.01277911026
0.003512389056
0.01457479692
0.002806094907
0.01595746034
0.002046530984
0.0168198431
0.001177992289
0.01702445431
0.0001405532675
0.01639876464
-0.001148395372
0.01472655094
-0.002815980591
0.01177274208
-0.00511930741
0.007446645824
-0.008581852559
0.002436262041
-0.01394589011
-0.0008889867682
-0.02017415058
-0.01771069555
-0.0024858818
0.01077614226
-1.090231263e-05
0.008825810442
0.004176436735
0.005708423981
0.008321113238
0.004129784919
0.0121087385
0.003169636312
0.01550918053
0.002482537209
0.01852417705
0.001975325723
0.02116008089
0.001584960432
0.02341396416
0.001258508647
0.02526356731
0.0009564938473
0.02666198779
0.0006481108862
0.02753133456
0.0003086439641
0.02775777448
-8.587921582e-05
0.02718098659
-0.000571605984
0.02556279119
-0.001197777339
0.02254131164
-0.002097830475
0.01761416095
-0.003654703127
0.01039777566
-0.006729509369
0.002472820952
-0.01224919169
-0.01523787575
0.01077614209
0.01960195258
0.0253103757
0.02944015938
0.03260979588
0.03509233524
0.03706766325
0.03865262371
0.03991113259
0.04086762925
0.04151574028
0.04182438073
0.04173850413
0.04116689193
0.03996911572
0.03787128244
0.0342165802
0.02748706993
0.01523787598
)
;

boundaryField
{
    movingWall
    {
        type            calculated;
        value           uniform 0;
    }
    fixedWalls
    {
        type            calculated;
        value           uniform 0;
    }
    frontAndBack
    {
        type            empty;
    }
}


// ************************************************************************* //
