/*--------------------------------*- C++ -*----------------------------------*\
  =========                 |
  \\      /  F ield         | OpenFOAM: The Open Source CFD Toolbox
   \\    /   O peration     | Website:  https://openfoam.org
    \\  /    A nd           | Version:  13
     \\/     M anipulation  |
\*---------------------------------------------------------------------------*/
FoamFile
{
    format      ascii;
    class       surfaceScalarField;
    location    "31";
    object      phi_0;
}
// * * * * * * * * * * * * * * * * * * * * * * * * * * * * * * * * * * * * * //

dimensions      [0 3 -1 0 0 0 0];

internalField   nonuniform List<scalar> 
760
(
-1.322107091e-05
1.321630589e-05
-7.201876066e-05
5.879769618e-05
-0.0001620728398
9.005409271e-05
-0.000265222322
0.0001031494913
-0.0003682414741
0.0001030191486
-0.0004615029135
9.326143588e-05
-0.0005377482762
7.624537669e-05
-0.0005912402262
5.349198465e-05
-0.0006175074138
2.626722804e-05
-0.000613587556
-3.919831795e-06
-0.0005784584764
-3.512907438e-05
-0.0005138416226
-6.461685917e-05
-0.0004246587604
-8.918286456e-05
-0.0003192814583
-0.0001053772946
-0.0002092254517
-0.0001100559925
-0.0001081388859
-0.0001010865529
-2.992539e-05
-7.821348567e-05
1.414900383e-05
-4.407437957e-05
2.190937171e-05
-7.760336731e-06
2.190941894e-05
-6.870415318e-05
8.192046543e-05
-0.0002457756593
0.0002358692109
-0.0004934720792
0.000337750526
-0.000772275392
0.0003819528403
-0.001050405677
0.0003811494791
-0.001303001374
0.0003458571613
-0.001510598695
0.0002838426944
-0.001657866304
0.000200759573
-0.00173319381
0.000101594724
-0.001729299903
-7.813718193e-06
-0.001643826246
-0.0001206026912
-0.001481409785
-0.000227033278
-0.001254378694
-0.0003162139258
-0.0009832928477
-0.0003764631321
-0.0006961406128
-0.0003972082285
-0.0004257312418
-0.0003714959181
-0.0002049935054
-0.0002989511948
-5.981265619e-05
-0.0001892551732
-4.923534837e-07
-6.708056326e-05
2.14170905e-05
-0.0001229341726
0.0002048546514
-0.0004149712451
0.0005279062974
-0.0008086653942
0.0007314446703
-0.001247160413
0.000820447861
-0.001684654938
0.0008186440275
-0.002084422104
0.0007456243716
-0.002416956377
0.0006163770135
-0.002658566364
0.0004423695881
-0.002790981611
0.0002340099778
-0.00280240397
3.608626275e-06
-0.002687893431
-0.000235113226
-0.002452954191
-0.0004619725031
-0.00211416586
-0.0006550022356
-0.001700370018
-0.0007902589575
-0.001251819672
-0.0008457585681
-0.0008167433078
-0.000806572283
-0.0004446228392
-0.0006710716568
-0.0001762320846
-0.0004576459043
-3.221228065e-05
-0.0002111003238
-1.079518011e-05
-0.0001720778328
0.000376932493
-0.0005725585666
0.0009283870657
-0.001105963291
0.00126484941
-0.00169802941
0.001412513981
-0.00229058758
0.001411202195
-0.002837242839
0.001292279634
-0.003300204145
0.001079338335
-0.003648277993
0.000790443458
-0.00385632466
0.0004420566606
-0.003905802347
5.308633236e-05
-0.003787734981
-0.0003531805837
-0.003504013713
-0.0007456937615
-0.003071263283
-0.001087752655
-0.002522623793
-0.001338898443
-0.001907991255
-0.001460391113
-0.001290902557
-0.001423660997
-0.0007407527323
-0.001221221494
-0.0003202703805
-0.0008781282514
-7.110216127e-05
-0.0004602685221
-8.189733867e-05
-0.0002170212431
0.000593953732
-0.00071883025
0.001430196093
-0.001385649928
0.001931669117
-0.00212711464
0.002153978719
-0.002874362309
0.002158449876
-0.003573180986
0.001991098312
-0.004178963054
0.001685120398
-0.004653566898
0.001265047302
-0.004964180737
0.0007526705058
-0.00508399982
0.0001729054291
-0.004995006795
-0.0004421735901
-0.004691174204
-0.001049526335
-0.004183505564
-0.001595421283
-0.003504379769
-0.002018024237
-0.002710442754
-0.00225432814
-0.001881573088
-0.002252530683
-0.001113230488
-0.001989564111
-0.0005008199344
-0.001490538808
-0.0001191418835
-0.0008419465641
-0.0002010392215
-0.0002573656989
0.0008513194324
-0.000851336375
0.002024166762
-0.001642290128
0.00272262288
-0.002526547335
0.003038235946
-0.003426887923
0.003058790486
-0.00428337266
0.00284758306
-0.005046196428
0.002447944164
-0.005670998295
0.001889849158
-0.006116730935
0.001198403141
-0.00634596152
0.0004021360205
-0.006327823855
-0.000460311237
-0.006042458362
-0.001334891802
-0.005488308103
-0.002149571521
-0.004689969117
-0.002816363214
-0.00370571776
-0.003238579504
-0.002631176615
-0.003327071844
-0.001594222971
-0.003026517768
-0.0007363854317
-0.00234837635
-0.0001821202141
-0.001396211777
-0.0003831594342
-0.0002911830421
0.001142502491
-0.0009641217018
0.002697105415
-0.001864156977
0.003622658151
-0.002878135372
0.004052214348
-0.003923450952
0.004104106079
-0.004936984975
0.003861117095
-0.005865869814
0.003376829007
-0.006660981349
0.002684960689
-0.007273418126
0.001810839914
-0.007653951638
0.0007826695357
-0.007755784713
-0.0003584781454
-0.00753976888
-0.00155090761
-0.006984010008
-0.002705330367
-0.006095799508
-0.003704573697
-0.00492569248
-0.004408686529
-0.003579471523
-0.004673292805
-0.002220383101
-0.004385606194
-0.001050843247
-0.003517916201
-0.0002684671548
-0.002178587864
-0.0006516265859
-0.0003159645963
0.001458467097
-0.001048734335
0.003429875161
-0.002034525481
0.004608449299
-0.003154894277
0.005172583147
-0.004325120425
0.005274332233
-0.005481833739
0.005017830416
-0.006571914273
0.004466909547
-0.007544101343
0.003657147762
-0.008343790541
0.002610529113
-0.008911109372
0.00134998837
-0.009182785567
-8.680193754e-05
-0.009096993155
-0.001636700003
-0.008604566342
-0.003197757157
-0.007684183449
-0.004624956572
-0.006364055721
-0.005728814246
-0.00474603399
-0.006291314533
-0.003022876233
-0.006108763947
-0.001469578341
-0.005071214088
-0.0003882437302
-0.003259922468
-0.001039870312
-0.0003291948569
0.001787661949
-0.001096440472
0.004197120785
-0.002135074643
0.00564708348
-0.003325360624
0.006362869139
-0.00458364114
0.00653261276
-0.005849360465
0.006283549751
-0.007072560111
0.005690109199
-0.008203808469
0.004788396123
-0.009187241124
0.003593961769
-0.009956876047
0.002119623296
-0.01043605194
0.0003923739639
-0.01054223281
-0.001530519124
-0.01019501911
-0.00354497084
-0.009334074862
-0.005485900804
-0.007946616826
-0.007116272271
-0.006105917261
-0.008132014091
-0.004012923822
-0.00820175738
-0.002014589636
-0.007069548267
-0.0005528012494
-0.004721710846
-0.001592671556
-0.0003297924829
0.002117454423
-0.001101700374
0.004969028677
-0.002151420279
0.006696803396
-0.003361072966
0.007572521844
-0.004650838841
0.007822378654
-0.005965948473
0.0075986594
-0.007263369689
0.006987530426
-0.008500555326
0.006025581767
-0.009627000631
0.004720407077
-0.01057859134
0.003071214007
-0.01127458388
0.001088366508
-0.01161813752
-0.001186965473
-0.01150161811
-0.003661490242
-0.0108205157
-0.006167003201
-0.009502991822
-0.008433796136
-0.007560600757
-0.01007440514
-0.005160867356
-0.01060149077
-0.00269611221
-0.009534303404
-0.0007741492788
-0.006643673768
-0.002366820829
-0.0003199349945
0.002437389417
-0.001066686605
0.005715780286
-0.002080423305
0.007710540107
-0.00324681328
0.00873891184
-0.00449230589
0.00906787129
-0.005770870635
0.008877224169
-0.007050313041
0.008266972853
-0.008300538916
0.007275807657
-0.009484298893
0.005904167063
-0.01054995953
0.004136874648
-0.01142561769
0.001964024677
-0.01201416903
-0.0005984141154
-0.01219379101
-0.003481868257
-0.01182096463
-0.00653982956
-0.01075537386
-0.009499386891
-0.008913745692
-0.0119160333
-0.006370853495
-0.01314438296
-0.003498962325
-0.01240619456
-0.001063150355
-0.009079485725
-0.003429971177
-0.0003074099588
0.002744799381
-0.001006588831
0.006414959163
-0.001938356895
0.008642308185
-0.002991901607
0.009792456574
-0.004102816541
0.01017878625
-0.005237452527
0.01001186019
-0.006378632121
0.009408152477
-0.007514088566
0.008411264129
-0.008627337196
0.007017415715
-0.00968985013
0.005199387601
-0.0106531485
0.002927323064
-0.01143757373
0.0001860111342
-0.01192946116
-0.002989980807
-0.01196499393
-0.006504296766
-0.01134374055
-0.01012064025
-0.009868967522
-0.01339080631
-0.007460112721
-0.01555323774
-0.004363832874
-0.01550247439
-0.001425534818
-0.01201778376
-0.004855505986
-0.0003089292469
0.003053728631
-0.0009555702335
0.007061600164
-0.00176849483
0.0094552328
-0.00263939721
0.01066335898
-0.003518270373
0.01105765944
-0.004389732478
0.01088332233
-0.005256730486
0.01027515052
-0.0061295271
0.00928406078
-0.007017720771
0.007905609421
-0.007923341084
0.006105007945
-0.008832227954
0.003836209963
-0.009704228793
0.001058012
-0.01045073944
-0.002243470133
-0.0109241311
-0.00603090508
-0.01089503673
-0.01014973459
-0.0100648932
-0.01422094983
-0.008157307618
-0.0174608233
-0.005167631746
-0.01849215024
-0.001854348609
-0.01533106688
-0.006709854585
-0.0003552714258
0.00340900006
-0.0009733372333
0.007679665993
-0.001646064619
0.01012796021
-0.00226872063
0.01128601501
-0.00281685302
0.01160579186
-0.003303709006
0.01137017834
-0.00375942738
0.01073086893
-0.004220943646
0.009745577085
-0.004726166935
0.008410832748
-0.005309783322
0.006688624366
-0.005996677299
0.004523103972
-0.00679181831
0.00185315304
-0.007660604265
-0.00137468415
-0.008503045858
-0.005188463462
-0.009113191605
-0.009539588817
-0.009142517759
-0.01419162365
-0.008128406346
-0.01847493469
-0.005711158748
-0.02090939782
-0.002318285009
-0.0187239406
-0.009028139586
-0.0005003786438
0.00390937871
-0.001151301427
0.008330588798
-0.001674829962
0.01065148876
-0.001981653243
0.01159283831
-0.002095688943
0.01171982758
-0.00207575509
0.01135024451
-0.001988498779
0.01064361265
-0.001901174421
0.009658252759
-0.001878950982
0.008388609341
-0.001985995043
0.006795668455
-0.002282490355
0.004819599308
-0.002818778063
0.002389440768
-0.003622172951
-0.0005712892428
-0.004668861463
-0.004141774932
-0.005834650703
-0.008373799559
-0.006807675933
-0.0132185984
-0.007016676958
-0.01826593365
-0.00571640498
-0.02220966978
-0.002739568004
-0.02170077756
-0.01176770758
-0.0008308870201
0.004740265741
-0.00160483806
0.009104539859
-0.001950988997
0.01099763971
-0.001839396935
0.01148124625
-0.001385453042
0.01126588369
-0.0007181531576
0.01068294464
4.81894299e-05
0.00987727008
0.0008163798576
0.008890062351
0.001495335597
0.007709653619
0.001998399729
0.006292604338
0.002238494339
0.00457950471
0.0021283334
0.002499601717
0.001583140325
-2.609615814e-05
0.0005450139721
-0.003103648569
-0.0009843296867
-0.006844455889
-0.002828413992
-0.01137451408
-0.004459134939
-0.01663521268
-0.004810494372
-0.02185831033
-0.002944292362
-0.02356697955
-0.01471199994
-0.001465683844
0.006205949599
-0.002379881105
0.01001873714
-0.002373453514
0.01099121213
-0.001603554963
0.01071134771
-0.000349643501
0.01001197223
0.001163622206
0.009169678941
0.002771819534
0.008269072761
0.004349510541
0.007312371353
0.005791600172
0.006267563995
0.006997992347
0.005086212166
0.00786547236
0.003712024699
0.008282266391
0.002082807687
0.008123805788
0.0001323644464
0.00726448253
-0.002244325306
0.005585201057
-0.005165174408
0.00307386343
-0.008863176444
7.896561376e-05
-0.01364031485
-0.00244575164
-0.01933359306
-0.002601079539
-0.02341165164
-0.01731307947
-0.002365504522
0.008571454134
-0.002963811145
0.01061704378
-0.001922819564
0.009950220553
8.110616521e-05
0.00870742198
0.00253487441
0.00755820399
0.005140239935
0.00656431342
0.007719735585
0.005689577117
0.01015460232
0.00487750462
0.01234955417
0.004072612155
0.01421198379
0.003223782544
0.0156405233
0.002283485187
0.01651757422
0.001205756761
0.01669708693
-4.714825766e-05
0.01602711583
-0.001574354205
0.01430508169
-0.003443140255
0.01133282415
-0.005890918894
0.007055608443
-0.009363099138
0.002201620366
-0.01447960497
-0.001027321977
-0.02018270929
-0.01834040144
-0.002150342519
0.01072179666
-7.199464867e-05
0.008538695931
0.003741897042
0.006136328877
0.007719769118
0.004729549912
0.01156186453
0.003716108584
0.0151410014
0.00298517656
0.01839884485
0.002431733672
0.02130154282
0.001974806652
0.02381242052
0.001561734456
0.02587972205
0.00115648101
0.02743055737
0.0007326498674
0.02836471822
0.0002715959085
0.02857560966
-0.0002580397006
0.02788765935
-0.0008864038908
0.02609933706
-0.001654817951
0.02290826268
-0.0026998445
0.01790696459
-0.00436180104
0.01076690666
-0.007339547025
0.002912179723
-0.01232798234
-0.01542822171
0.01072179667
0.01926049261
0.02539682149
0.03012637141
0.03384248
0.03682765656
0.03925939024
0.04123419689
0.04279593134
0.04395241235
0.04468506222
0.04495665812
0.04469861842
0.04381221454
0.04215739659
0.0394575521
0.03509575106
0.02775620404
0.01542822171
)
;

boundaryField
{
    movingWall
    {
        type            calculated;
        value           uniform 0;
    }
    fixedWalls
    {
        type            calculated;
        value           uniform 0;
    }
    frontAndBack
    {
        type            empty;
    }
}


// ************************************************************************* //
