/*--------------------------------*- C++ -*----------------------------------*\
  =========                 |
  \\      /  F ield         | OpenFOAM: The Open Source CFD Toolbox
   \\    /   O peration     | Website:  https://openfoam.org
    \\  /    A nd           | Version:  13
     \\/     M anipulation  |
\*---------------------------------------------------------------------------*/
FoamFile
{
    format      ascii;
    class       volVectorField;
    location    "31";
    object      U;
}
// * * * * * * * * * * * * * * * * * * * * * * * * * * * * * * * * * * * * * //

dimensions      [0 1 -1 0 0 0 0];

internalField   nonuniform List<vector> 
400
(
(0.0001775609675 -0.0001812952136 0)
(-0.0001444316231 3.405708282e-05 0)
(-0.001527333352 0.0002695104594 0)
(-0.003754495929 0.0004191682318 0)
(-0.00648274766 0.0004980398669 0)
(-0.009413946479 0.0005275220424 0)
(-0.01230093033 0.0005174136117 0)
(-0.01491340299 0.000466871874 0)
(-0.01701482973 0.0003694407383 0)
(-0.01836286999 0.0002199925239 0)
(-0.01873582941 2.182340741e-05 0)
(-0.01798087624 -0.0002079344627 0)
(-0.01607230332 -0.0004359143433 0)
(-0.01316172742 -0.0006163328855 0)
(-0.009598513173 -0.0007012809515 0)
(-0.005900363969 -0.0006560971755 0)
(-0.002665190868 -0.0004741768946 0)
(-0.0004294292788 -0.0001851873909 0)
(0.0005211513452 0.0001309729092 0)
(0.0003037738732 0.0002968959575 0)
(-5.039619332e-05 0.0001431710096 0)
(-0.002055920415 0.001914592567 0)
(-0.0063552271 0.003717720079 0)
(-0.0124246235 0.004963645036 0)
(-0.01951774796 0.005618403823 0)
(-0.02697169088 0.00575751839 0)
(-0.03418933758 0.005431798007 0)
(-0.04059733952 0.004648600664 0)
(-0.04562515291 0.003398978993 0)
(-0.04872328536 0.001702031818 0)
(-0.04942548206 -0.0003517235197 0)
(-0.04744409245 -0.002572169316 0)
(-0.04277687301 -0.004668008624 0)
(-0.03579332642 -0.006282178294 0)
(-0.02726366654 -0.007066398824 0)
(-0.01829681157 -0.006784530777 0)
(-0.01016615132 -0.00541781906 0)
(-0.004030863875 -0.003240299534 0)
(-0.0005917295616 -0.0008722859347 0)
(0.0002146767071 0.0005698946672 0)
(-0.0003516638511 0.001703545004 0)
(-0.004422469499 0.006387727306 0)
(-0.01170384986 0.01053865848 0)
(-0.02129683286 0.01334485012 0)
(-0.03212357575 0.0147581518 0)
(-0.04328374113 0.01490473412 0)
(-0.05395032996 0.01387431549 0)
(-0.0633193252 0.01169065775 0)
(-0.07060076799 0.00836761477 0)
(-0.07505333778 0.003997593953 0)
(-0.07606460917 -0.001165093363 0)
(-0.07326451519 -0.006654012537 0)
(-0.06664958133 -0.01179538308 0)
(-0.05668759718 -0.01578458054 0)
(-0.04436463675 -0.01784105623 0)
(-0.03113116083 -0.01742670528 0)
(-0.01870724112 -0.01447893192 0)
(-0.008744169319 -0.00958415172 0)
(-0.00241782868 -0.004053143802 0)
(2.934187502e-05 -2.653556768e-06 0)
(-0.0006244531967 0.004536920159 0)
(-0.006705024996 0.01349018091 0)
(-0.01684642047 0.0206385799 0)
(-0.02970689584 0.02528390046 0)
(-0.04387487402 0.02748936209 0)
(-0.05827178993 0.02747128238 0)
(-0.07192661558 0.02536923558 0)
(-0.08389589148 0.02123079013 0)
(-0.09325355423 0.01510710337 0)
(-0.0991278684 0.007188697454 0)
(-0.1007829135 -0.00207109492 0)
(-0.09773444218 -0.0118825323 0)
(-0.08988530697 -0.02112352025 0)
(-0.0776590476 -0.02844870371 0)
(-0.06209668122 -0.03252008419 0)
(-0.04486155673 -0.03235435318 0)
(-0.02807971123 -0.02772534898 0)
(-0.01397854012 -0.0194907567 0)
(-0.004409001168 -0.009705674514 0)
(-0.0001301222041 -0.001541229074 0)
(-0.0008594359436 0.00852909753 0)
(-0.008749161294 0.02300049948 0)
(-0.02149144183 0.03369722756 0)
(-0.03730948702 0.0403555473 0)
(-0.05447824746 0.04332012069 0)
(-0.07178498832 0.04297195073 0)
(-0.08817968933 0.03952660166 0)
(-0.1026505486 0.03306077006 0)
(-0.1141956452 0.02365874278 0)
(-0.1218449838 0.01159777696 0)
(-0.124727369 -0.002486698785 0)
(-0.1221774676 -0.01749537461 0)
(-0.1138825102 -0.03184803204 0)
(-0.1000608709 -0.04359583972 0)
(-0.0816439607 -0.05070186933 0)
(-0.0603964134 -0.05151848449 0)
(-0.03885766931 -0.0454113384 0)
(-0.01999898153 -0.03334095742 0)
(-0.006634260849 -0.0181072393 0)
(-0.0002757746727 -0.004101576887 0)
(-0.001053613579 0.0135247117 0)
(-0.01047991593 0.03462721856 0)
(-0.02545934337 0.04937522478 0)
(-0.04383871877 0.05820857076 0)
(-0.06362965066 0.06192392818 0)
(-0.08353214725 0.06115704668 0)
(-0.1024740015 0.05623567353 0)
(-0.1194357242 0.04726741282 0)
(-0.1333904518 0.03434554434 0)
(-0.1432954732 0.01778639302 0)
(-0.148129919 -0.001658490278 0)
(-0.1469815932 -0.02264707845 0)
(-0.1391998745 -0.04318122056 0)
(-0.1246250301 -0.06067085636 0)
(-0.1038798196 -0.07221750234 0)
(-0.07866078251 -0.07520050241 0)
(-0.05187147367 -0.06817566093 0)
(-0.02739127444 -0.05187253054 0)
(-0.009375243953 -0.02978208678 0)
(-0.000450133236 -0.00783277173 0)
(-0.001200090592 0.0193397806 0)
(-0.01182771414 0.04800248461 0)
(-0.02858202795 0.06724297599 0)
(-0.04901756848 0.07841896458 0)
(-0.07094994098 0.08293129752 0)
(-0.09304175806 0.08176218672 0)
(-0.1142521492 0.07539261363 0)
(-0.1336119485 0.06396041269 0)
(-0.1501237796 0.04752906086 0)
(-0.1627114848 0.02637819862 0)
(-0.1702145321 0.001268250092 0)
(-0.1714442373 -0.02633835297 0)
(-0.165323384 -0.05412219441 0)
(-0.1511485168 -0.07886862844 0)
(-0.1289946391 -0.09667593019 0)
(-0.1002146925 -0.1035831905 0)
(-0.06787536951 -0.09675728428 0)
(-0.0368211302 -0.0761034384 0)
(-0.01299343964 -0.04557967186 0)
(-0.0007042624914 -0.013062867 0)
(-0.001290629466 0.02575406062 0)
(-0.01272384183 0.06267476368 0)
(-0.03069280029 0.08675783477 0)
(-0.05255069016 0.1004327011 0)
(-0.07598792537 0.1058308414 0)
(-0.09967706392 0.1043688604 0)
(-0.1226587225 0.09672651589 0)
(-0.1440730745 0.08307431243 0)
(-0.1630179959 0.0634035156 0)
(-0.1784512484 0.03786781531 0)
(-0.1891336351 0.007102010449 0)
(-0.1936329506 -0.0274798186 0)
(-0.19042469 -0.06340619789 0)
(-0.1781483238 -0.09695173054 0)
(-0.1560806651 -0.1231644397 0)
(-0.1248423743 -0.1363996015 0)
(-0.08723492749 -0.1317046333 0)
(-0.0488725586 -0.1071948641 0)
(-0.01788537269 -0.06667292131 0)
(-0.001100918193 -0.02032409086 0)
(-0.001320551673 0.03251369773 0)
(-0.01312191954 0.07811544041 0)
(-0.03166176799 0.107261419 0)
(-0.05417430979 0.123538177 0)
(-0.07828782452 0.1299073046 0)
(-0.1027250871 0.1283042519 0)
(-0.1266535964 0.119661001 0)
(-0.1493829256 0.1041951299 0)
(-0.1701851598 0.08179502656 0)
(-0.1881518881 0.05240638888 0)
(-0.2020827059 0.01639936058 0)
(-0.2104215987 -0.02505684572 0)
(-0.2112827171 -0.06958496211 0)
(-0.2026367714 -0.1131968815 0)
(-0.1827690554 -0.1500260669 0)
(-0.1511219201 -0.1725602916 0)
(-0.109559666 -0.1729653594 0)
(-0.06385976087 -0.1461744409 0)
(-0.02445394637 -0.09448220217 0)
(-0.001722756736 -0.03036697321 0)
(-0.001296058601 0.039352319 0)
(-0.01303605491 0.09374945657 0)
(-0.03146275022 0.127997648 0)
(-0.05375067388 0.146859062 0)
(-0.07751430038 0.1542040454 0)
(-0.1015606428 0.1525716282 0)
(-0.1252258544 0.1432113973 0)
(-0.1480480914 0.126422772 0)
(-0.1695598292 0.1019878649 0)
(-0.18910983 0.06959314096 0)
(-0.2057027849 0.02922984091 0)
(-0.2178609519 -0.01837664985 0)
(-0.223546475 -0.0712400117 0)
(-0.2202047131 -0.1255027152 0)
(-0.2050871785 -0.1747729114 0)
(-0.1760798829 -0.2098143195 0)
(-0.1332872674 -0.2193600451 0)
(-0.08155011955 -0.1934657833 0)
(-0.03305401182 -0.130489012 0)
(-0.002683374994 -0.04416936707 0)
(-0.001244155616 0.04603777459 0)
(-0.012592524 0.1090220066 0)
(-0.03026227838 0.1481634201 0)
(-0.05139133874 0.1693790842 0)
(-0.0736142347 0.1775245463 0)
(-0.09586074132 0.1758331169 0)
(-0.1176816005 0.1659495127 0)
(-0.1389012095 0.1483122276 0)
(-0.1593944586 0.1226295142 0)
(-0.1788912952 0.08832605914 0)
(-0.1967857572 0.04495512322 0)
(-0.2119279784 -0.007354774792 0)
(-0.2224438688 -0.06732968201 0)
(-0.2255752185 -0.1317167989 0)
(-0.2177385469 -0.1942605795 0)
(-0.1951271661 -0.2446130318 0)
(-0.1553335218 -0.268070019 0)
(-0.1007838051 -0.2482243613 0)
(-0.04386521933 -0.1758742029 0)
(-0.004137538244 -0.06292747425 0)
(-0.001226271808 0.05245290502 0)
(-0.01209480001 0.1235093499 0)
(-0.0285204065 0.1669962598 0)
(-0.04758476578 0.1900020509 0)
(-0.06697455741 0.1984795671 0)
(-0.08581061484 0.196458672 0)
(-0.1039259262 0.186060139 0)
(-0.1214908965 0.167930627 0)
(-0.1387880842 0.1417666275 0)
(-0.1560218697 0.1067798757 0)
(-0.1731243572 0.0620982013 0)
(-0.1895320059 0.007181338931 0)
(-0.2038739038 -0.05762528404 0)
(-0.2136410267 -0.1301836433 0)
(-0.2149220443 -0.2052153779 0)
(-0.2024831429 -0.2723754619 0)
(-0.171027852 -0.3143838872 0)
(-0.1190781691 -0.3075924322 0)
(-0.05664321894 -0.2309042797 0)
(-0.006283694633 -0.08799721041 0)
(-0.001360081125 0.05872353554 0)
(-0.01210838181 0.1370755298 0)
(-0.02709295595 0.1838868194 0)
(-0.04329284075 0.2076294096 0)
(-0.05851319007 0.2155629763 0)
(-0.07220753576 0.2126275624 0)
(-0.08460714733 0.2014809126 0)
(-0.09629874434 0.1830314213 0)
(-0.1080135652 0.1570310573 0)
(-0.1204698409 0.1225618152 0)
(-0.1342115109 0.07841058368 0)
(-0.1493960158 0.02341419246 0)
(-0.1654686149 -0.0430726946 0)
(-0.1806942435 -0.1203929931 0)
(-0.1915424542 -0.2050782653 0)
(-0.1921178963 -0.288268964 0)
(-0.1745291375 -0.3519858632 0)
(-0.1324202576 -0.3661517395 0)
(-0.07032946883 -0.2940302105 0)
(-0.009345330155 -0.1207109103 0)
(-0.001860242992 0.06541668428 0)
(-0.01358013455 0.1500673927 0)
(-0.02731728975 0.1984786534 0)
(-0.03995494328 0.2212073471 0)
(-0.04960067593 0.2272069269 0)
(-0.05632010656 0.222430497 0)
(-0.06093477467 0.2100684112 0)
(-0.06453536999 0.1912854389 0)
(-0.06831583671 0.1659221728 0)
(-0.07348191447 0.1330131487 0)
(-0.08115708044 0.09113478568 0)
(-0.0922367391 0.03866344957 0)
(-0.1071247725 -0.02592468992 0)
(-0.1252615267 -0.1034902261 0)
(-0.1443030908 -0.1929352882 0)
(-0.1588818193 -0.2884001796 0)
(-0.1596467122 -0.3739347229 0)
(-0.1354114472 -0.4159649376 0)
(-0.08256410193 -0.3608330467 0)
(-0.01348098257 -0.1619106785 0)
(-0.003098159917 0.07383333533 0)
(-0.01798559654 0.1635144962 0)
(-0.03099435909 0.210670144 0)
(-0.03921935738 0.2296493698 0)
(-0.04155993352 0.2317262786 0)
(-0.03920019945 0.2238789717 0)
(-0.03383215672 0.2096847947 0)
(-0.02714852165 0.1904482088 0)
(-0.0207920537 0.1660572575 0)
(-0.01637480783 0.1355404603 0)
(-0.01548251563 0.09739274556 0)
(-0.01963103253 0.04975477204 0)
(-0.03012831024 -0.009457309234 0)
(-0.04773965452 -0.08231214298 0)
(-0.07191815959 -0.1700951964 0)
(-0.09916493568 -0.2709968273 0)
(-0.1205980266 -0.3741346419 0)
(-0.121618927 -0.4474808987 0)
(-0.08917458681 -0.4233533908 0)
(-0.01847488946 -0.211142554 0)
(-0.005589378321 0.08650359799 0)
(-0.02731470906 0.1792205093 0)
(-0.03983092559 0.220252434 0)
(-0.04171244002 0.2313747569 0)
(-0.03389858204 0.226938597 0)
(-0.01954406735 0.2146435224 0)
(-0.001539669348 0.1980478561 0)
(0.01776103249 0.1783175989 0)
(0.03633275131 0.1552489064 0)
(0.0522895757 0.1278452502 0)
(0.06375638501 0.09461470188 0)
(0.06879829251 0.05368857783 0)
(0.06541655281 0.002825705952 0)
(0.05167691708 -0.06065167995 0)
(0.02618063016 -0.1397787406 0)
(-0.0104389901 -0.236876877 0)
(-0.0520981988 -0.3485983745 0)
(-0.0837030321 -0.4509969194 0)
(-0.08368801596 -0.4705317854 0)
(-0.02312339686 -0.2662832146 0)
(-0.009895823571 0.1087528802 0)
(-0.04311045546 0.1994653781 0)
(-0.05253017622 0.2254434358 0)
(-0.04231391602 0.2228357504 0)
(-0.01861415147 0.2090457151 0)
(0.01232993453 0.1912962218 0)
(0.04636344589 0.1722696065 0)
(0.08066638648 0.1525131156 0)
(0.1130780107 0.1314962778 0)
(0.1416924645 0.1081321571 0)
(0.1645970442 0.08100492467 0)
(0.1797011913 0.0484247254 0)
(0.1846182315 0.008362741973 0)
(0.1766264828 -0.04179587366 0)
(0.1527656569 -0.1057324843 0)
(0.1106587273 -0.1887212019 0)
(0.05162824301 -0.2956960505 0)
(-0.01301380422 -0.4174707116 0)
(-0.05701239401 -0.4886493303 0)
(-0.02468519643 -0.3237617342 0)
(-0.01778966569 0.1517609053 0)
(-0.06133042685 0.2236591179 0)
(-0.05241235337 0.2175721187 0)
(-0.01466744423 0.1947350321 0)
(0.03492053415 0.1707822373 0)
(0.08793133892 0.1487752824 0)
(0.1404046435 0.1291079601 0)
(0.1900716511 0.1111781762 0)
(0.235347088 0.09393259748 0)
(0.274831488 0.0761753453 0)
(0.3069889008 0.05665340437 0)
(0.3299419962 0.03402126593 0)
(0.3413002303 0.006744549294 0)
(0.3380509124 -0.02717165054 0)
(0.3163678717 -0.07088659728 0)
(0.2716439787 -0.1303231814 0)
(0.1996706077 -0.2163641902 0)
(0.1026517066 -0.3382727041 0)
(0.004155836602 -0.45670247 0)
(-0.0160074578 -0.3691989559 0)
(-0.02418855674 0.2083441384 0)
(-0.03785881052 0.2304364531 0)
(0.03730670005 0.1765469277 0)
(0.1250123391 0.1367897072 0)
(0.2056576676 0.1089369044 0)
(0.2776843435 0.08806480076 0)
(0.3417817552 0.07197403752 0)
(0.3982607587 0.05907045427 0)
(0.4471894878 0.04796426493 0)
(0.4883387516 0.03751944776 0)
(0.5210582999 0.02677522568 0)
(0.544102674 0.01487169802 0)
(0.5555705264 0.0009262334058 0)
(0.5527896158 -0.01613810977 0)
(0.531923018 -0.03815795638 0)
(0.4874820889 -0.06906494802 0)
(0.4109748753 -0.1190691408 0)
(0.2907636301 -0.2093538944 0)
(0.1330584112 -0.3382938182 0)
(0.03872100696 -0.3403388683 0)
(0.2419059492 0.1091565982 0)
(0.3135259996 0.0971512891 0)
(0.4444218691 0.05698263918 0)
(0.5497140948 0.03510283399 0)
(0.6240807841 0.02371858925 0)
(0.6795299079 0.01668273106 0)
(0.7233078711 0.01195635605 0)
(0.7585330065 0.008680876052 0)
(0.7867696464 0.006256674201 0)
(0.8088231789 0.004247506331 0)
(0.8248726982 0.002354600545 0)
(0.8345397623 0.000370207151 0)
(0.8369504512 -0.001883054657 0)
(0.830671719 -0.004570084205 0)
(0.813382944 -0.008017225662 0)
(0.7811760971 -0.01289082811 0)
(0.7257451484 -0.02125233587 0)
(0.6298985118 -0.03811723849 0)
(0.4592740599 -0.08557738888 0)
(0.3048886068 -0.125701735 0)
)
;

boundaryField
{
    movingWall
    {
        type            fixedValue;
        value           uniform (1 0 0);
    }
    fixedWalls
    {
        type            fixedValue;
        value           uniform (0 0 0);
    }
    frontAndBack
    {
        type            empty;
    }
}


// ************************************************************************* //
