/*--------------------------------*- C++ -*----------------------------------*\
  =========                 |
  \\      /  F ield         | OpenFOAM: The Open Source CFD Toolbox
   \\    /   O peration     | Website:  https://openfoam.org
    \\  /    A nd           | Version:  13
     \\/     M anipulation  |
\*---------------------------------------------------------------------------*/
FoamFile
{
    format      ascii;
    class       vectorField;
    location    "31";
    object      U_all;
}
// * * * * * * * * * * * * * * * * * * * * * * * * * * * * * * * * * * * * * //


400
(
(1.096473569e-05 -3.785967464e-05 0)
(-0.0006661382544 0.0004130367214 -1.548644757e-23)
(-0.002185382186 0.0009203902849 0)
(-0.004047826714 0.001312775665 0)
(-0.005971851337 0.001535059688 6.841740544e-25)
(-0.007762758538 0.00156984203 4.15174613e-24)
(-0.009284515132 0.001423559124 -7.361693425e-24)
(-0.01043590762 0.001119720621 7.542666625e-24)
(-0.01113677861 0.000696081582 -2.096346085e-25)
(-0.01132707611 0.0002030778805 -3.996082895e-24)
(-0.01097174059 -0.0003002322558 5.805148061e-24)
(-0.01007230199 -0.0007475142418 -5.93078645e-23)
(-0.008679862067 -0.001075559979 -6.553927721e-23)
(-0.006902843335 -0.001233041583 -7.785584617e-23)
(-0.004910735896 -0.001192636416 4.574380035e-24)
(-0.002927235382 -0.000961919777 -4.138745784e-24)
(-0.001205306024 -0.0005912127817 -1.999286331e-22)
(-1.907578882e-05 -0.0001698853861 0)
(0.0005181487125 0.0001720826761 1.51176582e-25)
(0.0002227498846 0.0003059773376 -2.580825308e-24)
(-0.000263381886 0.0008289279554 1.385093118e-25)
(-0.00270331819 0.003383812657 1.558395553e-23)
(-0.006907265501 0.005604469684 1.551201809e-25)
(-0.01195228329 0.007008174171 -8.487395592e-25)
(-0.01713498264 0.007553742857 1.160958066e-24)
(-0.02197527072 0.007294169829 1.305653707e-23)
(-0.0261106609 0.0063218709 1.400653227e-24)
(-0.02926553774 0.004754178662 -7.294085544e-24)
(-0.03122661753 0.002737146993 1.015849571e-23)
(-0.03184190028 0.0004524102456 4.511652531e-24)
(-0.03102751359 -0.001884132135 -6.320551821e-24)
(-0.0287930796 -0.004023010751 2.961522338e-24)
(-0.02527131545 -0.005708332143 3.896175294e-23)
(-0.02073190159 -0.006707386836 -1.955170481e-24)
(-0.0155895997 -0.006854120837 3.755297332e-24)
(-0.01038512458 -0.006097451724 -9.743775224e-23)
(-0.005730274436 -0.004546182481 9.640461499e-23)
(-0.002233374081 -0.002507422723 -3.965652381e-25)
(-0.0001817809952 -0.0005023803383 4.065666857e-25)
(8.343462624e-05 0.0006099200533 0)
(-0.0004188263285 0.002935054764 -2.912501859e-25)
(-0.00464786778 0.008803965217 1.704815898e-23)
(-0.01137192332 0.01324035724 -8.25783124e-24)
(-0.01932721823 0.01579196763 -2.071378856e-25)
(-0.02747400749 0.01652992807 2.034913459e-25)
(-0.03511764534 0.01564435214 7.215352439e-27)
(-0.04171327876 0.01335992485 -1.232759329e-24)
(-0.04683553083 0.009919738239 -4.559221515e-25)
(-0.0501496967 0.00560242202 -1.063698677e-23)
(-0.0514121305 0.0007444315539 0)
(-0.05047775731 -0.004241749782 0)
(-0.04733690874 -0.008887141167 2.67166759e-23)
(-0.04215915202 -0.0126817146 2.81364318e-23)
(-0.03531427764 -0.01513599512 -1.646576535e-24)
(-0.02738989698 -0.01586184446 4.847260834e-23)
(-0.01917002132 -0.01467330257 9.421994724e-23)
(-0.01156089153 -0.01169358102 3.978503868e-23)
(-0.005465409146 -0.007450737125 4.150937191e-25)
(-0.001451101509 -0.0029360499 1.069121497e-25)
(-9.072725357e-05 0.0002258686479 0)
(-0.0005024631777 0.006045317072 -4.251526548e-23)
(-0.006402717773 0.01637067275 -1.695036154e-23)
(-0.01553496184 0.02355922114 8.184698041e-24)
(-0.02627901086 0.02744149883 0)
(-0.03728731071 0.02832089765 0)
(-0.04769017551 0.02658761677 0)
(-0.05679639679 0.02263111939 -4.506983198e-26)
(-0.06405358348 0.01683603999 -2.129942571e-24)
(-0.06901054739 0.009622165971 0)
(-0.07130801363 0.001491068473 1.637023173e-24)
(-0.07070828482 -0.006936452157 2.803752109e-25)
(-0.0671301689 -0.01493010981 -2.81160255e-25)
(-0.06069886418 -0.0216671856 0)
(-0.05180735205 -0.02631595572 4.134605027e-23)
(-0.0411498039 -0.02816061309 -4.682932421e-23)
(-0.02971962796 -0.0267736439 -2.763391558e-23)
(-0.01873712534 -0.02221525206 -3.963693543e-23)
(-0.009488010745 -0.01521919692 7.795907696e-25)
(-0.002976876331 -0.007298193284 9.787369449e-23)
(-0.000231879391 -0.0008661758712 0)
(-0.0005316115907 0.01009496727 4.272203718e-23)
(-0.007983560159 0.02595207163 4.781069083e-25)
(-0.01939679245 0.03642865761 -4.671871028e-25)
(-0.032823685 0.04185501748 0)
(-0.046646694 0.04289466752 7.778869158e-25)
(-0.05985205025 0.04020057931 -7.671012308e-25)
(-0.07163262669 0.03434729318 3.671026746e-23)
(-0.08132719668 0.02585656386 1.846884103e-23)
(-0.08836567956 0.01527295765 6.235347842e-24)
(-0.09225436292 0.003246173084 -1.638930328e-24)
(-0.09260347805 -0.009407757963 0)
(-0.08917526077 -0.02167466541 4.372646563e-25)
(-0.08195953457 -0.03236730765 1.009692336e-23)
(-0.07126864084 -0.04021234579 -4.350721643e-23)
(-0.05782002343 -0.04402031218 1.933758151e-24)
(-0.04278571398 -0.04294816339 4.220097883e-23)
(-0.02775443234 -0.03683337331 -3.846287252e-25)
(-0.01455058802 -0.02652715465 0)
(-0.00485945156 -0.01408452742 5.436531561e-23)
(-0.0003641472664 -0.002846957162 -2.564770728e-22)
(-0.0005272189509 0.01499920696 9.838776281e-23)
(-0.009377886595 0.03739005034 -4.905653698e-25)
(-0.02288173383 0.05170199661 0)
(-0.03883027775 0.05894157403 0)
(-0.05538634728 0.06025549608 -8.730783179e-23)
(-0.07142848975 0.05661879205 -8.497796884e-23)
(-0.08606621839 0.0488015191 -4.066157828e-23)
(-0.09855050343 0.03743969871 -1.50373156e-23)
(-0.1081941549 0.02315980167 -5.365794697e-24)
(-0.1143440914 0.006709710513 -8.173279424e-24)
(-0.1164042483 -0.01093282551 6.599299048e-24)
(-0.1138933902 -0.0284892992 8.823367989e-24)
(-0.1065483835 -0.04437027045 -1.892301628e-23)
(-0.09446777219 -0.05675312322 4.593762281e-24)
(-0.07826835456 -0.0637827715 0)
(-0.0592287973 -0.06393476078 -1.574345894e-23)
(-0.03933971761 -0.05653801097 -2.383292293e-26)
(-0.02114183469 -0.04235799366 0)
(-0.007318684457 -0.0239822515 -1.520342626e-22)
(-0.0005216146982 -0.00592554139 6.055649518e-22)
(-0.0004990801688 0.02064565208 -9.771754375e-23)
(-0.01052946981 0.05045415688 2.831703871e-22)
(-0.02582947842 0.06912481745 1.526723776e-22)
(-0.04402122224 0.07849225218 3.618858378e-24)
(-0.06310716623 0.08029444779 -7.31928846e-23)
(-0.08190376639 0.07588015264 9.042168491e-23)
(-0.09947730315 0.06621669193 -3.589796197e-24)
(-0.1150223671 0.05201681178 -1.728956612e-24)
(-0.1277515239 0.03392353024 2.52384063e-24)
(-0.1368468564 0.01270236302 7.381019899e-24)
(-0.1414706528 -0.01058771088 -6.499149814e-24)
(-0.1408244366 -0.0344600605 -9.78446332e-24)
(-0.1342742464 -0.05692747876 -3.261770579e-23)
(-0.1215447169 -0.07553288941 -3.659295821e-23)
(-0.1029670126 -0.08754232345 5.641508953e-25)
(-0.07976350691 -0.09039183286 0)
(-0.05426669582 -0.08244491928 0)
(-0.02987153854 -0.06397721713 -2.905589519e-24)
(-0.01066282579 -0.03798787017 2.970028212e-24)
(-0.0007350912735 -0.01050088 1.027868072e-22)
(-0.0004479154622 0.02687239649 0)
(-0.0113491965 0.06480730157 2.001968754e-22)
(-0.02801590908 0.08829580986 8.962055388e-23)
(-0.04799842531 0.1001231008 0)
(-0.06920581113 0.1027072757 1.569749093e-22)
(-0.09044346739 0.09781545475 0)
(-0.1107828564 0.08661077143 -1.428314015e-22)
(-0.1294090283 0.06983933332 6.515127547e-24)
(-0.1454767909 0.04808224914 0)
(-0.1580347962 0.02201758234 0)
(-0.16601296 -0.007334318004 -1.374298142e-24)
(-0.1682667817 -0.03838819045 -9.315648629e-25)
(-0.1637061189 -0.06883948249 1.491832352e-22)
(-0.1515205605 -0.09558243361 -4.704642855e-23)
(-0.1315131865 -0.1148295208 -2.560515519e-24)
(-0.1045593954 -0.1225700067 1.534269986e-24)
(-0.07309335031 -0.1155515071 -1.558471993e-24)
(-0.04135012963 -0.09283094211 0)
(-0.01525227025 -0.05740755684 3.203565721e-24)
(-0.001044306098 -0.01714711464 -1.012850481e-21)
(-0.0003744670091 0.03346291259 0)
(-0.0117500343 0.0799888734 -1.128152842e-22)
(-0.02920701097 0.1086386792 -6.190867024e-22)
(-0.05031733192 0.1232229488 -3.75516461e-22)
(-0.07296300526 0.1269092697 0)
(-0.09598938588 0.1219251853 4.119308937e-22)
(-0.1185270926 0.1096345675 1.26085935e-22)
(-0.1398143556 0.09078226097 -5.581604384e-24)
(-0.1590218476 0.0658138418 5.553978441e-24)
(-0.1751457812 0.03520883079 0)
(-0.1869556761 -0.0001966221907 2.912032337e-23)
(-0.1930169475 -0.03889732314 4.695600808e-24)
(-0.1917806872 -0.07843858503 -1.076732048e-22)
(-0.1817871614 -0.1151861778 8.003468671e-23)
(-0.1620567931 -0.1442595527 -2.419591152e-22)
(-0.1327059927 -0.159854468 0)
(-0.09577872812 -0.1563109314 0)
(-0.05601623723 -0.1302978298 0)
(-0.02147855335 -0.08381118316 0)
(-0.001500381031 -0.02665511395 5.571798185e-22)
(-0.0002873920726 0.04016063315 0)
(-0.01169358342 0.09543577418 -3.492875152e-22)
(-0.02924434391 0.1294069112 8.932508448e-22)
(-0.05060940003 0.1469294265 3.617041465e-22)
(-0.07370071813 0.1519743951 0)
(-0.09745137021 0.1472753842 -3.862415772e-22)
(-0.1211068156 0.1344188722 -3.174336941e-23)
(-0.1440322907 0.1141391159 3.333024764e-22)
(-0.1655141229 0.08669996524 1.76943359e-22)
(-0.1846246449 0.05229124948 -4.060062271e-23)
(-0.2001323716 0.0114172861 1.656816461e-23)
(-0.2104620356 -0.03471401836 -8.26499579e-24)
(-0.2137206471 -0.0837653285 3.371773135e-22)
(-0.2078213498 -0.1318752606 0)
(-0.1908236644 -0.1732751951 2.420760103e-22)
(-0.1616334045 -0.2002589058 5.774290762e-24)
(-0.1211661326 -0.2040117611 -5.860402518e-24)
(-0.07384980727 -0.1772116581 1.548284708e-22)
(-0.02971782764 -0.1188640151 -5.434959954e-24)
(-0.002179541041 -0.04005391687 0)
(-0.0002117233501 0.04671625264 0)
(-0.01125001409 0.1105494614 0)
(-0.02815624186 0.1497350327 -5.022614024e-22)
(-0.04874477765 0.1701512513 -1.880951529e-23)
(-0.07100083566 0.1766252246 2.038331049e-23)
(-0.0939944701 0.1724522249 -2.014264109e-23)
(-0.1171433749 0.1594867667 -2.316834207e-23)
(-0.1400178901 0.138480288 -3.029750403e-22)
(-0.162132828 0.1095159697 6.698599719e-23)
(-0.1827958446 0.07245188425 4.513075643e-23)
(-0.2009834987 0.02734941101 -4.577617088e-23)
(-0.215226969 -0.02508675948 0)
(-0.223556159 -0.08298321502 -7.839283055e-23)
(-0.2234631475 -0.1427253692 0)
(-0.2120678589 -0.1981816754 -3.739474057e-22)
(-0.1867433617 -0.2400769301 5.244785562e-22)
(-0.1464437392 -0.2560769079 0)
(-0.0939456052 -0.2331205728 -1.493835829e-22)
(-0.0402199719 -0.1639611053 1.937386983e-22)
(-0.003201095878 -0.0586105388 -3.411367106e-22)
(-0.0002015454436 0.05297571028 0)
(-0.01067263909 0.1248168971 9.18270815e-22)
(-0.02628450363 0.168741998 -2.440637718e-23)
(-0.04501112641 0.1916450104 9.19318033e-22)
(-0.06494603107 0.1992916206 -2.512038864e-23)
(-0.08536634831 0.1956100125 2.838794772e-23)
(-0.1059306361 0.1827883618 -2.812881283e-23)
(-0.1264925004 0.1616581422 -1.660892093e-23)
(-0.1468997783 0.1321761396 -5.260149713e-22)
(-0.1668459205 0.0938964888 -8.906496491e-24)
(-0.1857304146 0.04640588597 9.660060967e-24)
(-0.2024782818 -0.01023764011 3.3130387e-22)
(-0.2154155651 -0.0749979269 -5.82065735e-22)
(-0.2220210535 -0.1450308523 0)
(-0.2188032604 -0.2146756861 8.88715738e-22)
(-0.2016257656 -0.2740012346 -4.940728383e-22)
(-0.1668639002 -0.3075807772 -1.572171713e-23)
(-0.1140219744 -0.2953808041 0)
(-0.05288479222 -0.2195799697 -1.890023421e-22)
(-0.004749183976 -0.08377266732 3.360427691e-22)
(-0.0003642039524 0.05902305341 1.550985648e-23)
(-0.01049577622 0.1379878381 -8.764043322e-22)
(-0.0244139709 0.185679982 -1.157042585e-21)
(-0.04026735566 0.2101380019 -8.628838917e-22)
(-0.05630743848 0.2182344348 0)
(-0.07214873516 0.2146186351 3.513755442e-23)
(-0.08779241073 0.2018788999 -7.294766214e-23)
(-0.103456497 0.1810003779 5.86780802e-23)
(-0.1193986264 0.1518996558 3.021326172e-22)
(-0.135793411 0.1139150947 -1.128182537e-23)
(-0.1526084991 0.06621437709 0)
(-0.1694524049 0.008177400854 -3.603886674e-22)
(-0.1852763146 -0.06015962759 7.515589205e-22)
(-0.1980450792 -0.1372744142 8.831616876e-22)
(-0.2043548105 -0.2189258715 -5.296544153e-22)
(-0.1990978893 -0.2959709465 5.162610082e-22)
(-0.176060601 -0.3514068935 1.078183381e-23)
(-0.1300890803 -0.3584147196 -1.095497625e-23)
(-0.0668880237 -0.2843273606 -8.216891285e-23)
(-0.007083316807 -0.1169963167 0)
(-0.0009095836092 0.06540031612 -1.911461993e-23)
(-0.01167596784 0.1502813773 -1.326949956e-21)
(-0.02388892971 0.2000655827 1.094221957e-21)
(-0.03601357115 0.2244212769 6.734848194e-22)
(-0.04657330631 0.2316584173 6.014559515e-22)
(-0.05577064854 0.2272390221 6.643878997e-22)
(-0.06411275807 0.2141772308 -4.458626845e-23)
(-0.07227594739 0.1936492882 -3.46130171e-22)
(-0.08097008393 0.165602789 2.152141848e-22)
(-0.09087229311 0.1292707896 0)
(-0.1025551221 0.08353095707 0)
(-0.116362589 0.02720029544 2.655376519e-22)
(-0.1321593139 -0.04061983798 8.194345174e-23)
(-0.1489255602 -0.1200125907 -2.821585201e-22)
(-0.1641287108 -0.2089298173 -5.411221655e-23)
(-0.1727879825 -0.3006989849 1.30195147e-22)
(-0.1670312779 -0.3793326248 -3.40042473e-22)
(-0.1365293168 -0.4136449014 -1.594599297e-23)
(-0.0801825169 -0.3538323578 8.205661812e-23)
(-0.01050762202 -0.15941293 -6.032308432e-22)
(-0.00226050444 0.07348876688 0)
(-0.01580361641 0.1626519762 2.145850871e-21)
(-0.02665055888 0.2117901742 0)
(-0.03422360455 0.2333943802 -1.351792644e-21)
(-0.03759426202 0.2377763412 6.184071288e-23)
(-0.03799718725 0.23125506 -6.19302149e-22)
(-0.03668303765 0.2171896873 -4.756235377e-22)
(-0.03489077348 0.1968933325 8.30117217e-22)
(-0.03378880868 0.1703342163 -1.885679947e-22)
(-0.03449920066 0.1367221707 0)
(-0.0381161598 0.09479686621 0)
(-0.04565034374 0.04304303996 2.41062456e-23)
(-0.05790844099 -0.02013761636 -6.007153737e-22)
(-0.07514635243 -0.09620630378 -4.309532752e-22)
(-0.09645207417 -0.1855554246 4.637826908e-22)
(-0.1183465288 -0.2853565877 -6.488655101e-22)
(-0.1332717357 -0.3838384549 9.119845934e-23)
(-0.1265352152 -0.4504356613 2.938129342e-23)
(-0.08899158098 -0.4198534306 5.660511586e-22)
(-0.01526918158 -0.2111718584 6.020940893e-22)
(-0.005180904643 0.08598042535 0)
(-0.02525556829 0.1766289891 1.465581125e-22)
(-0.03483422102 0.2205959414 -4.917096851e-23)
(-0.03640036495 0.2354856734 7.642849728e-22)
(-0.03018513531 0.2343404101 -7.005301938e-22)
(-0.0191661649 0.2241601575 4.746432689e-23)
(-0.005615564887 0.2083524156 -1.018601409e-22)
(0.008569164243 0.1881240167 -3.389856066e-22)
(0.02179840357 0.1633911139 2.062805474e-22)
(0.03262736153 0.1333243313 0)
(0.03958414907 0.09664097552 0)
(0.04116972223 0.0517407132 -2.902647963e-22)
(0.03578445734 -0.003255236033 0)
(0.02198150017 -0.07058344917 -5.512152227e-22)
(-0.0012651525 -0.1525734062 -1.492353031e-23)
(-0.03310495686 -0.2505948559 2.559698703e-23)
(-0.06909256436 -0.359934027 2.203072061e-22)
(-0.092278405 -0.4575423309 4.78851797e-24)
(-0.08718095405 -0.469812805 -5.789484632e-22)
(-0.02103127719 -0.2698971407 0)
(-0.01111631814 0.1085974945 0)
(-0.04248906845 0.1947151062 -8.848406468e-22)
(-0.04795541273 0.2258194234 -5.410998917e-22)
(-0.0391955654 0.2282133825 4.543776965e-22)
(-0.01877858798 0.2182326278 -1.709989821e-24)
(0.007663961864 0.2028218672 -4.561004653e-23)
(0.0366795348 0.1847618505 5.696625559e-22)
(0.06582955901 0.1647117474 -2.766866205e-23)
(0.09327087344 0.1423128036 -2.069764266e-22)
(0.1173887356 0.1166275349 3.142189353e-23)
(0.1365457672 0.08641152407 -3.425893317e-23)
(0.1489665578 0.05017680428 -3.690571185e-23)
(0.1525272488 0.006159292932 3.20561359e-22)
(0.1449364159 -0.04796114913 6.119567214e-22)
(0.123515731 -0.115305187 -5.101133951e-22)
(0.08633512966 -0.200419483 -1.616027327e-22)
(0.03199071393 -0.3067805955 1.531338029e-22)
(-0.02362135949 -0.4239836503 7.293693521e-23)
(-0.06492418251 -0.4871612058 1.913297422e-21)
(-0.02509972415 -0.3291544173 2.954998035e-21)
(-0.02004680283 0.1460727572 -4.390184626e-23)
(-0.06416408508 0.2112955751 4.417357234e-23)
(-0.05070237886 0.2177299923 1.000181509e-21)
(-0.01934111108 0.2014679047 -8.270389668e-24)
(0.02414444308 0.1809075062 0)
(0.07154095098 0.1606932265 4.363678047e-23)
(0.1190700226 0.1416494626 -2.273829274e-22)
(0.1644763846 0.1233181276 -9.027866305e-23)
(0.2062247556 0.1048117131 3.680699881e-23)
(0.2429639491 0.08507142151 -1.701642671e-23)
(0.2732204274 0.06296152804 3.429946596e-23)
(0.2952533156 0.03726301002 -6.592636068e-23)
(0.3066968485 0.006535148778 -9.303857975e-23)
(0.3049736137 -0.03087762264 1.517031966e-22)
(0.2863934476 -0.07786284497 0)
(0.2470566669 -0.1399299921 1.505576606e-22)
(0.1810921089 -0.2266299547 2.56001727e-22)
(0.09604441676 -0.3443894694 0)
(-0.00669765965 -0.4552209946 -3.675644343e-21)
(-0.01922408914 -0.3777537337 -2.892627291e-21)
(-0.02591950818 0.2276828975 -9.514188791e-22)
(-0.0399832376 0.2238216649 -1.388969855e-22)
(0.03656136063 0.1810585255 -2.335564301e-22)
(0.1090502591 0.1451058759 -1.193733136e-22)
(0.1817190252 0.1172445016 -4.295785861e-23)
(0.2490089272 0.09627902548 9.783057886e-23)
(0.3100334788 0.08002506073 -1.408575218e-22)
(0.3646207089 0.06656812429 1.297161929e-22)
(0.4126250078 0.05449177821 -8.620040106e-23)
(0.4536247879 0.04270895711 1.13218764e-25)
(0.4867876448 0.03032300762 1.52773046e-23)
(0.510744935 0.01652905251 7.997149074e-23)
(0.523659579 0.0005365504424 -1.811111084e-22)
(0.5231796739 -0.01863369736 -1.61713408e-22)
(0.505232248 -0.04286476116 -4.262875955e-23)
(0.4658714417 -0.07633229397 0)
(0.3952696015 -0.1286089328 -1.846496009e-22)
(0.2916070683 -0.2208468081 8.14878212e-22)
(0.1197454885 -0.3525016886 1.631604638e-21)
(0.02670546707 -0.3775497945 2.172657423e-21)
(0.2142894523 0.134744726 9.864971967e-22)
(0.2776311354 0.09870504244 0)
(0.4316592479 0.05810415149 -2.594304567e-22)
(0.5304749427 0.03846264853 -1.741650873e-22)
(0.6016965614 0.02623418698 0)
(0.6571198552 0.01831922945 -6.009012336e-23)
(0.701521294 0.01313600395 6.377918856e-23)
(0.7376041644 0.009542123916 -1.800134905e-23)
(0.7669367458 0.006804464015 2.88594153e-23)
(0.7902105726 0.004464747121 2.315010909e-23)
(0.8074554143 0.002221325291 0)
(0.8182620648 -0.0001500681858 -2.873011084e-23)
(0.8216499209 -0.00272384115 0)
(0.8162393899 -0.005712663267 2.738111626e-23)
(0.7991333018 -0.009611379649 1.421654759e-23)
(0.7679986327 -0.0150025502 -5.799440267e-23)
(0.710655578 -0.02502520095 -2.535671823e-22)
(0.6235183996 -0.04204285574 -6.918116374e-22)
(0.4230091016 -0.09182968253 0)
(0.2705674684 -0.1524021849 -2.119485251e-21)
)


// ************************************************************************* //
