/*--------------------------------*- C++ -*----------------------------------*\
  =========                 |
  \\      /  F ield         | OpenFOAM: The Open Source CFD Toolbox
   \\    /   O peration     | Website:  https://openfoam.org
    \\  /    A nd           | Version:  13
     \\/     M anipulation  |
\*---------------------------------------------------------------------------*/
FoamFile
{
    format      ascii;
    class       scalarField;
    location    "4.21";
    object      p_all;
}
// * * * * * * * * * * * * * * * * * * * * * * * * * * * * * * * * * * * * * //


400
(
2.301564967e-08
-0.0003686059016
-0.0005483394099
-0.000525904621
-0.0003202841366
3.887826335e-05
0.0005191040564
0.001090152283
0.001722868661
0.002386822413
0.003048091381
0.003668159598
0.004204146787
0.004611477045
0.004848873663
0.004886276018
0.004715437143
0.004362241902
0.00393133298
0.003460839294
0.0003973771051
5.315138635e-06
-0.0001943878281
-0.0001868359872
-1.491545204e-05
0.0002963464465
0.0007195662435
0.001227824485
0.001793791002
0.002387931284
0.002976815555
0.003522964128
0.00398514213
0.004321966908
0.004497293028
0.00448815772
0.004294226531
0.003946289286
0.003530902067
0.003028305523
0.0005868994214
0.000158939621
-6.467261853e-05
-5.822635905e-05
0.0001019095738
0.0003897404337
0.00078116119
0.001253217844
0.001781951342
0.002339997966
0.002895001735
0.0034091019
0.003839889211
0.004144624663
0.004286317022
0.004242072059
0.004011304858
0.003621120068
0.003131101734
0.002493881245
0.000489984677
1.886692281e-05
-0.0002323207607
-0.0002221869447
-5.845510966e-05
0.0002287405542
0.0006161669957
0.001084474898
0.001613789068
0.002179722441
0.002750690794
0.003286818152
0.003740188198
0.004060125239
0.004200199067
0.004128393938
0.003836761681
0.003347216057
0.002701814952
0.001859171783
1.017015168e-05
-0.0004913473524
-0.0007555039355
-0.0007307443962
-0.0005500248844
-0.0002473170156
0.0001553983438
0.0006434899998
0.001202777297
0.001813584114
0.002445665407
0.003056871666
0.003590347136
0.003981518809
0.00416573034
0.004091752921
0.003735841961
0.003112325564
0.002250734194
0.001135215516
-0.0009405979011
-0.001457828733
-0.001724847199
-0.001677946094
-0.001473514807
-0.001148428883
-0.00072199442
-0.0002019423775
0.0004062956215
0.001091246222
0.001826695481
0.002571318929
0.003257118064
0.00380011206
0.004106133579
0.004089414494
0.003695034693
0.002920471226
0.001778398219
0.0002996817002
-0.002447188333
-0.002970237747
-0.003237184674
-0.003169707417
-0.002948380448
-0.002612178887
-0.002175821194
-0.001636865624
-0.0009870645029
-0.000223280831
0.0006388295714
0.001574437964
0.002500421013
0.003311789835
0.003871507524
0.004034862222
0.003686112463
0.002780830753
0.001293921446
-0.0006675535378
-0.004594795867
-0.005119714665
-0.005391639825
-0.005318777755
-0.005107879767
-0.004799990937
-0.004403586411
-0.003902186321
-0.003266941053
-0.002467782893
-0.00148446492
-0.0003404871268
0.0009137083307
0.002149466458
0.003173640233
0.003746651843
0.003638026287
0.002705671169
0.0008340925599
-0.001752745061
-0.007465538945
-0.00799223744
-0.008281747687
-0.008233302733
-0.008084028503
-0.00787910401
-0.007620930492
-0.007276154659
-0.00678740025
-0.006083268457
-0.005091185202
-0.003770779426
-0.002132056229
-0.0002920944788
0.001501202105
0.00287126869
0.003386326363
0.002698443557
0.0004863480862
-0.002865193771
-0.01113126144
-0.01166039985
-0.01198333053
-0.01199735406
-0.0119789907
-0.01198344635
-0.01201098682
-0.0120120445
-0.0118951254
-0.0115310501
-0.01076295262
-0.009437745386
-0.007459570885
-0.004868618571
-0.001931504218
0.0008111789754
0.002612264802
0.002734166584
0.0004216312208
-0.003765838169
-0.01564879644
-0.01617603875
-0.01654048378
-0.01664485966
-0.01682348659
-0.01715305289
-0.01764105247
-0.0182282028
-0.01878943926
-0.01912606128
-0.01896421852
-0.01798003134
-0.01588302381
-0.01252310504
-0.008087733367
-0.003249757229
0.0008267050968
0.002756413115
0.0009498438786
-0.003942309921
-0.02106617218
-0.02156958731
-0.02195437709
-0.02213135484
-0.0225278854
-0.02325993627
-0.02435661448
-0.02576095961
-0.027322403
-0.02877080365
-0.02969445914
-0.02955184768
-0.02775080515
-0.02382576309
-0.01770854863
-0.01006375201
-0.002475194697
0.002762967658
0.002625743835
-0.002396933636
-0.02745419144
-0.02786362393
-0.02817974569
-0.02830978792
-0.02883858376
-0.02994422971
-0.03169278426
-0.03404204148
-0.03682718619
-0.03971409166
-0.04215073852
-0.04335313772
-0.0423643417
-0.03828488456
-0.03058904253
-0.01967211732
-0.007344818222
0.003094363908
0.006459205531
0.002676032988
-0.03499173635
-0.0351139616
-0.03513866844
-0.03492333249
-0.03532263026
-0.03659950667
-0.0388649972
-0.04209443459
-0.04611227538
-0.05052706662
-0.054655892
-0.0574811803
-0.0576757123
-0.05385196191
-0.04487996124
-0.03059225395
-0.0126291648
0.00498492024
0.01430641259
0.01429040688
-0.0441499487
-0.04346972175
-0.04272363074
-0.04159061369
-0.04137193227
-0.04241908087
-0.04487338424
-0.04870737683
-0.05371673584
-0.05944205321
-0.06506935875
-0.06937497561
-0.07072171365
-0.06719066428
-0.05708462923
-0.03946636233
-0.01536497324
0.01122388547
0.02947821288
0.03712395942
-0.05616680374
-0.05336863406
-0.05089380286
-0.04788308169
-0.0463135869
-0.04656600499
-0.04875100467
-0.05277984912
-0.05836780059
-0.06494354716
-0.0715287644
-0.07674943885
-0.07869445861
-0.07486523977
-0.06314987415
-0.04182496562
-0.01103999742
0.0264945378
0.05726381021
0.07812304305
-0.07374694108
-0.06537927953
-0.05934893426
-0.05306863502
-0.04929766057
-0.04820258993
-0.04971701395
-0.05358439115
-0.05935669527
-0.06629397965
-0.07323347483
-0.07849845266
-0.07988243526
-0.07467454661
-0.06015945447
-0.03390968372
0.004802142905
0.0564622312
0.1042302704
0.1460111701
-0.1056380614
-0.08176149209
-0.06872390065
-0.05700096022
-0.04997539285
-0.04701544266
-0.04758013601
-0.05106326331
-0.05673115276
-0.06359015873
-0.07023793002
-0.07473892573
-0.07461786945
-0.06673799845
-0.04793178616
-0.01485436788
0.03458037417
0.1027784899
0.173972608
0.2522282127
-0.164983117
-0.09702452847
-0.07366378713
-0.05439515319
-0.0442763553
-0.04027269426
-0.04069239261
-0.04437284478
-0.05025856862
-0.05713440748
-0.06342337557
-0.06702292041
-0.06518420014
-0.05451896473
-0.03126377791
0.009266280677
0.07125704106
0.1612360384
0.2709427329
0.4327207954
-0.3949926582
-0.1355212281
-0.0739315404
-0.04718658755
-0.03381647371
-0.02942282933
-0.03056924565
-0.03510616412
-0.04165223637
-0.04888048361
-0.05517147729
-0.05841691938
-0.05596895651
-0.0442758307
-0.0185931577
0.02780255781
0.1031409769
0.2287158631
0.414990716
0.7752778561
)


// ************************************************************************* //
