/*--------------------------------*- C++ -*----------------------------------*\
  =========                 |
  \\      /  F ield         | OpenFOAM: The Open Source CFD Toolbox
   \\    /   O peration     | Website:  https://openfoam.org
    \\  /    A nd           | Version:  13
     \\/     M anipulation  |
\*---------------------------------------------------------------------------*/
FoamFile
{
    format      ascii;
    class       volScalarField;
    location    "22";
    object      p;
}
// * * * * * * * * * * * * * * * * * * * * * * * * * * * * * * * * * * * * * //

dimensions      [0 2 -2 0 0 0 0];

internalField   nonuniform List<scalar> 
400
(
-3.123470919e-09
-0.0004923575147
-0.001082685607
-0.001524360338
-0.001703032547
-0.001573206093
-0.001115005943
-0.0003226355635
0.000790711603
0.002179971196
0.003755034896
0.005375107845
0.006858196514
0.008009147814
0.008664811719
0.008745792478
0.008297712833
0.007506888108
0.00667903202
0.006150377563
0.0004977805427
-1.154711928e-05
-0.0005275407752
-0.0008760422321
-0.001000535046
-0.0008761972981
-0.0004865041742
0.0001781306501
0.001112962336
0.00228632749
0.003626787767
0.005017000978
0.006300200838
0.007305189272
0.007887001464
0.0079740099
0.007603671069
0.006929407019
0.006192331213
0.005653097793
0.001111040269
0.0004686580143
-7.701071894e-05
-0.0003961790971
-0.0005069540408
-0.0004161090654
-0.0001132566262
0.0004177125731
0.00118628353
0.002179929924
0.003348242602
0.004592837461
0.005770188268
0.006713280825
0.007271906218
0.007361664776
0.00700129585
0.006314906553
0.005495143283
0.004790660314
0.001541418502
0.0007111568763
5.925671007e-05
-0.0002995382318
-0.000450032871
-0.0004299152582
-0.000233574423
0.000165230399
0.0007953780904
0.001668195367
0.002755829849
0.003974516087
0.005181267954
0.006192159438
0.006824516676
0.006954128094
0.0065637364
0.005751482353
0.004696074487
0.003703388072
0.001556952474
0.0005344528454
-0.0002491846747
-0.0006870047886
-0.0009204630869
-0.001011708141
-0.0009547978099
-0.0007081217972
-0.0002174905194
0.0005586749722
0.001620827262
0.002902735344
0.004258728716
0.005475428694
0.006314552374
0.006581761817
0.006195938362
0.005218366817
0.003834475405
0.002461095138
0.0009673567541
-0.0002298508416
-0.00114864926
-0.001691174948
-0.002047923818
-0.002298783859
-0.002431946558
-0.002384801851
-0.002070766191
-0.001408405163
-0.0003568565116
0.001047560219
0.002664494286
0.004247606598
0.00548212531
0.006065205908
0.005805752197
0.004693670814
0.002921035258
0.001070345335
-0.0003898185425
-0.001734378097
-0.002784409333
-0.00345476837
-0.003979476315
-0.004451231533
-0.004848517455
-0.005083201466
-0.005028778273
-0.00455110517
-0.003549546549
-0.002006485951
-3.412093089e-05
0.002098618898
0.003985926467
0.005169877431
0.005277742881
0.004155910058
0.001969483415
-0.000470170948
-0.002645304934
-0.004103921021
-0.005278310199
-0.006100133854
-0.006843382037
-0.007611569993
-0.008372819777
-0.009011662794
-0.009355402514
-0.00920276041
-0.008367837753
-0.006742249508
-0.004368343144
-0.001504367931
0.001356406046
0.003555029854
0.004437656836
0.003579549836
0.001025576989
-0.002119337345
-0.005888700799
-0.007423365336
-0.008711060269
-0.009704060747
-0.0107155296
-0.01186191974
-0.01310478946
-0.01430385195
-0.01523762129
-0.01562514654
-0.01516766714
-0.01362024777
-0.01089358441
-0.007170482881
-0.002991951584
0.0007588498079
0.003031803904
0.002934997943
0.0002011995936
-0.003735202992
-0.01015952429
-0.01172768668
-0.01310689458
-0.01427320546
-0.01558327846
-0.01717434277
-0.01901045476
-0.02093428897
-0.02267876527
-0.02387700576
-0.02409493234
-0.02290459865
-0.02001220762
-0.01542758855
-0.009646679394
-0.003742422924
0.0007454280265
0.002202906074
-0.0002786070564
-0.004991143537
-0.01544556492
-0.0169987437
-0.01842353734
-0.0197227121
-0.02131087807
-0.02336193763
-0.0258566676
-0.02863287677
-0.03138691655
-0.03366865304
-0.03489867889
-0.03443312947
-0.03170630564
-0.02644084294
-0.01894067874
-0.01034272393
-0.002684431343
0.001438057124
1.014966098e-06
-0.005246028519
-0.02169780676
-0.02317584892
-0.02455297638
-0.02586444551
-0.02761673819
-0.03004750704
-0.03317195303
-0.03683586837
-0.04071010919
-0.0442709748
-0.0467993439
-0.04742890746
-0.04527270063
-0.03967694795
-0.03057942401
-0.01895871822
-0.007206687413
0.0009378186939
0.001781881316
-0.003344453135
-0.02887446623
-0.03018722093
-0.03133639891
-0.03240911221
-0.03407217071
-0.03666763365
-0.04026165468
-0.04471434321
-0.04967613421
-0.05455857408
-0.05851620808
-0.06047256622
-0.05922738339
-0.05369607956
-0.04331122027
-0.02862587551
-0.01207030767
0.001542446562
0.006369639244
0.002673904379
-0.03703799466
-0.03801003129
-0.03859106468
-0.038980269
-0.0401254875
-0.04252269004
-0.04629339754
-0.05130119031
-0.0571644416
-0.06322583247
-0.06852202668
-0.0717891463
-0.07154417092
-0.06628890056
-0.0548975966
-0.03728283073
-0.01549013115
0.004983953484
0.01596604074
0.01594190282
-0.04655526592
-0.04677181839
-0.04614319697
-0.04513464262
-0.04515129224
-0.04687294121
-0.05044597525
-0.05569632022
-0.0621724245
-0.06912138333
-0.07545103735
-0.07971952187
-0.0801930319
-0.07501410386
-0.06254306507
-0.04198110919
-0.01460988539
0.01407846794
0.03392541838
0.04099626986
-0.05844372329
-0.05692148137
-0.05387576367
-0.0504006443
-0.04853715874
-0.04907881675
-0.05209424408
-0.05728995913
-0.06407654317
-0.07155618676
-0.07847304156
-0.08319098943
-0.08373188074
-0.07791610371
-0.06366624076
-0.03953967121
-0.005871011002
0.03263441329
0.06468846264
0.08334993547
-0.07495462348
-0.06954090683
-0.06175915094
-0.05430673138
-0.04977210901
-0.04872341788
-0.05094128871
-0.05588469947
-0.06274539059
-0.0704170263
-0.07743707494
-0.08194357768
-0.08169211275
-0.07416200044
-0.05683286383
-0.0276487992
0.01404970013
0.06504821315
0.113986484
0.1497187782
-0.1031838037
-0.08711015062
-0.0694663434
-0.05600427796
-0.04815686296
-0.04536229876
-0.04678685455
-0.05148766052
-0.05834229321
-0.06599719277
-0.07277360511
-0.07657399694
-0.07487611606
-0.06476683882
-0.04313808993
-0.007039007458
0.04563274031
0.1143100155
0.1906218928
0.2574320955
-0.1751911154
-0.1142344671
-0.07337791403
-0.05189413073
-0.04123453428
-0.03742864516
-0.03874896351
-0.04375311795
-0.05094561378
-0.05875820903
-0.06539646733
-0.06860693601
-0.06566277776
-0.05330620442
-0.02774438254
0.01542713688
0.08135215215
0.1758889481
0.3038153314
0.4516395629
-0.355069938
-0.1546206931
-0.07012762754
-0.04275746147
-0.03139170967
-0.0274648713
-0.02929750622
-0.03508366162
-0.04298349115
-0.05127999046
-0.05812131294
-0.06126455365
-0.05796109998
-0.04483976428
-0.01749289411
0.03006651355
0.1073649477
0.232191475
0.4336477663
0.7348188423
)
;

boundaryField
{
    movingWall
    {
        type            zeroGradient;
    }
    fixedWalls
    {
        type            zeroGradient;
    }
    frontAndBack
    {
        type            empty;
    }
}


// ************************************************************************* //
