/*--------------------------------*- C++ -*----------------------------------*\
  =========                 |
  \\      /  F ield         | OpenFOAM: The Open Source CFD Toolbox
   \\    /   O peration     | Website:  https://openfoam.org
    \\  /    A nd           | Version:  13
     \\/     M anipulation  |
\*---------------------------------------------------------------------------*/
FoamFile
{
    format      ascii;
    class       scalarField;
    location    "22";
    object      p_all;
}
// * * * * * * * * * * * * * * * * * * * * * * * * * * * * * * * * * * * * * //


400
(
1.699773367e-06
-0.0005454089879
-0.0008873456635
-0.001014714761
-0.0009357457758
-0.0006828088704
-0.0002934810538
0.0001962663522
0.0007499384694
0.001327064004
0.001881991898
0.002361852595
0.002711252962
0.002877113744
0.002817917458
0.002515671905
0.001990828873
0.001300510283
0.0006417218524
4.591386275e-05
0.0005899549363
8.815863032e-06
-0.000354808915
-0.0004970412676
-0.0004662802308
-0.0002890902334
5.122332619e-06
0.0003870453062
0.0008252747513
0.001282573639
0.001719119671
0.002083762321
0.002326123215
0.002398832463
0.002268019208
0.001924908635
0.001396237778
0.0007470446221
0.0001495267146
-0.0005130834438
0.0009540701199
0.0003098460946
-9.126439145e-05
-0.000237494643
-0.0002312806907
-0.0001026675361
0.0001243097619
0.0004283400107
0.0007856687362
0.001164303214
0.001532405009
0.001835916624
0.002024902525
0.002050640656
0.001877991865
0.001497131842
0.0009320276864
0.0002392221835
-0.00045912216
-0.001295980874
0.0009777056752
0.0002597190953
-0.0001903623818
-0.0003425210217
-0.000351656935
-0.0002545481103
-7.181537905e-05
0.0001839483395
0.0004991826646
0.0008536206712
0.001206115213
0.001513714523
0.001715644938
0.001751386408
0.001572074225
0.001154318735
0.0005099319148
-0.0003143625619
-0.001229536715
-0.002380148126
0.0004820994691
-0.0002832240282
-0.0007619719616
-0.0009135178761
-0.0009343659068
-0.0008657541133
-0.000722657382
-0.0005055294719
-0.0002140937006
0.0001423865752
0.0005334770092
0.0009109056843
0.001203463093
0.001330277246
0.001214944003
0.0008042711075
8.420781046e-05
-0.0009131911708
-0.002122981398
-0.003651246707
-0.0006845359031
-0.001465160723
-0.001954069667
-0.002104968404
-0.002147533016
-0.002123928171
-0.002039277641
-0.001876392675
-0.001614038046
-0.001241802457
-0.0007752303915
-0.0002588587733
0.0002247052256
0.0005656519381
0.0006420892659
0.0003458991918
-0.0003885064953
-0.001559351177
-0.003129912942
-0.005136865287
-0.00265963345
-0.003421191602
-0.003912912085
-0.004078118682
-0.004175230311
-0.004243956588
-0.004274614629
-0.00422520469
-0.004043283666
-0.003685076158
-0.003136048749
-0.00242195856
-0.001628693653
-0.0008986441072
-0.0004200565399
-0.0003939080042
-0.0009833771705
-0.002255560872
-0.00422748702
-0.006822744168
-0.005552283012
-0.006267093496
-0.006765221779
-0.006978952944
-0.00719201752
-0.007439495011
-0.007692729662
-0.007877327806
-0.007896879171
-0.007654997664
-0.007081531167
-0.006153593623
-0.004937894631
-0.003599160291
-0.002408413873
-0.001709153431
-0.001837906368
-0.003009654114
-0.005362878643
-0.008656335927
-0.009431785497
-0.01007807386
-0.01059478205
-0.01090675217
-0.0113217423
-0.01187109177
-0.01250586343
-0.01311363257
-0.01354125538
-0.01361641407
-0.01317528152
-0.01211386987
-0.01042089674
-0.00824970737
-0.005949855009
-0.004055813092
-0.003184361379
-0.003837361998
-0.006420629719
-0.01048550178
-0.01431272467
-0.0148717425
-0.01541858199
-0.01587750493
-0.01658483948
-0.01757432032
-0.01878044247
-0.02005182849
-0.02116964898
-0.02186519363
-0.02184867579
-0.02086350493
-0.01876335121
-0.01561192767
-0.01178745798
-0.008030333317
-0.005353429968
-0.004754018469
-0.007175065051
-0.01197290893
-0.02014938468
-0.02059970981
-0.02116977457
-0.02179142537
-0.02284620235
-0.02438370815
-0.02633172977
-0.0285052655
-0.03061844701
-0.03229380071
-0.03308522527
-0.032530634
-0.03027265905
-0.02616935958
-0.02051624884
-0.01419607302
-0.008684447404
-0.005720090526
-0.007212971357
-0.01246002823
-0.02685063875
-0.02715656081
-0.02769691584
-0.02841698642
-0.02978257892
-0.03188170777
-0.03465057874
-0.03788044063
-0.04122394559
-0.04419450244
-0.04617728623
-0.04646798684
-0.04445256725
-0.03965007368
-0.03211181085
-0.02269039977
-0.01325908756
-0.006479193108
-0.005802329976
-0.01075904125
-0.03432838767
-0.03441202363
-0.03478334604
-0.03539814309
-0.03688488688
-0.03940224396
-0.04291136829
-0.0471881084
-0.05182976385
-0.05624760669
-0.05966880537
-0.0611800995
-0.05976919014
-0.05464607388
-0.045432108
-0.0326915627
-0.01844577167
-0.006239334108
-0.001667951773
-0.004867921635
-0.04260315116
-0.04227301584
-0.04218931379
-0.04228945646
-0.04350673307
-0.04610871253
-0.05009107068
-0.05521101564
-0.06100504284
-0.06678581948
-0.07162980255
-0.07440308177
-0.07382328485
-0.06866637417
-0.05806422113
-0.04205480565
-0.02243366458
-0.003251411312
0.007352337497
0.008346254156
-0.05200356037
-0.05075457517
-0.04967161128
-0.04857269521
-0.04892022367
-0.05111302728
-0.05516492303
-0.06078754353
-0.06742627661
-0.07428044082
-0.0802735346
-0.08406758868
-0.08412290921
-0.07883076502
-0.06683692785
-0.04751820616
-0.02212271959
0.005506197161
0.02471946074
0.03353103317
-0.06364939064
-0.06018310087
-0.05709161525
-0.05375885555
-0.05245981881
-0.05367392472
-0.05735788649
-0.06313056713
-0.07025440297
-0.07779273815
-0.08448477006
-0.08877876221
-0.08889226338
-0.08283463215
-0.06884678277
-0.0456175284
-0.0137487189
0.02441963202
0.05554226027
0.07735823351
-0.08018055119
-0.07106956036
-0.06411632776
-0.0571609978
-0.05342710771
-0.05321066176
-0.05625358886
-0.06190779847
-0.06925234513
-0.07711019636
-0.08400582788
-0.08814611434
-0.08747562635
-0.07965282518
-0.06247692908
-0.03404878969
0.005565565713
0.05859593959
0.1058244355
0.1480690417
-0.1105028398
-0.08585065048
-0.0716032585
-0.05896870992
-0.05191110141
-0.04988024261
-0.05209914969
-0.05750438384
-0.06485453354
-0.07270320151
-0.07933494911
-0.08270909563
-0.08051618502
-0.06988430798
-0.04823065423
-0.01272169524
0.03823644981
0.1071325035
0.1779790541
0.2564768273
-0.1684338393
-0.09990558478
-0.07500649167
-0.05479656679
-0.04461760888
-0.0415834878
-0.04371515721
-0.04937810794
-0.05701302061
-0.06496628107
-0.07135735508
-0.07397631084
-0.07012613144
-0.05701106136
-0.03102693694
0.01193008672
0.07559961999
0.1664042018
0.2761619386
0.4377043151
-0.3984251408
-0.1380968661
-0.07496886039
-0.04708744866
-0.03354848292
-0.03002867498
-0.03279993616
-0.03926176373
-0.04755477549
-0.05593494703
-0.06249606816
-0.06502571996
-0.06099190959
-0.0469669269
-0.01875490085
0.02993649555
0.106956076
0.2334273838
0.419880269
0.7800235173
)


// ************************************************************************* //
