/*--------------------------------*- C++ -*----------------------------------*\
  =========                 |
  \\      /  F ield         | OpenFOAM: The Open Source CFD Toolbox
   \\    /   O peration     | Website:  https://openfoam.org
    \\  /    A nd           | Version:  13
     \\/     M anipulation  |
\*---------------------------------------------------------------------------*/
FoamFile
{
    format      ascii;
    class       surfaceScalarField;
    location    "22";
    object      phi_0;
}
// * * * * * * * * * * * * * * * * * * * * * * * * * * * * * * * * * * * * * //

dimensions      [0 3 -1 0 0 0 0];

internalField   nonuniform List<scalar> 
760
(
-1.322775112e-05
1.3209031e-05
-7.201352318e-05
5.878577391e-05
-0.0001620507512
9.003726039e-05
-0.0002651813318
0.0001031305726
-0.0003681823688
0.0001030009361
-0.0004614285105
9.324606347e-05
-0.0005376628644
7.623443219e-05
-0.0005911491787
5.348652713e-05
-0.0006174167863
2.626779194e-05
-0.0006135035082
-3.913254844e-06
-0.0005783867656
-3.511686062e-05
-0.0005137866432
-6.460026372e-05
-0.0004246229442
-8.91637678e-05
-0.0003192648165
-0.0001053581094
-0.0002092253918
-0.0001100393617
-0.0001081504028
-0.0001010749252
-2.994179513e-05
-7.820856101e-05
1.413454816e-05
-4.40763128e-05
2.190152024e-05
-7.766952318e-06
2.190153531e-05
-6.869567052e-05
8.190470309e-05
-0.0002457341912
0.000235824246
-0.0004933825705
0.0003376856637
-0.000772132241
0.0003818804083
-0.001050210867
0.000381079691
-0.001302762859
0.0003457979609
-0.001510328744
0.0002838000355
-0.001657580011
0.0002007375508
-0.001732907638
0.0001015953983
-0.001729030254
-7.790460914e-06
-0.001643588083
-0.0001205588102
-0.001481214777
-0.0002269734314
-0.001254233745
-0.0003161447708
-0.0009831990772
-0.0003763928088
-0.0006960929916
-0.000397145483
-0.0004257191548
-0.0003714487746
-0.0002050024077
-0.0002989252939
-5.982696782e-05
-0.0001892517165
-5.000458157e-07
-6.709382857e-05
2.140151382e-05
-0.0001229106537
0.0002048153894
-0.0004148884446
0.0005278019813
-0.0008085026579
0.0007312997369
-0.001246910624
0.0008202883546
-0.001684322052
0.0008184912898
-0.002084018833
0.0007454949746
-0.00241650189
0.0006162832033
-0.00265808403
0.0004423196201
-0.002790496963
0.0002340081808
-0.002801939791
3.652269387e-06
-0.002687474447
-0.0002350241549
-0.002452598128
-0.0004618496847
-0.00211388429
-0.0006548585275
-0.001700166808
-0.0007901102256
-0.001251690334
-0.0008456219115
-0.0008166754887
-0.0008064635917
-0.000444598252
-0.0006710025113
-0.0001762300539
-0.0004576198928
-3.221484237e-05
-0.000211109009
-1.08133013e-05
-0.0001720413964
0.0003768568235
-0.0005724375481
0.0009281982422
-0.001105732216
0.001264594335
-0.001697680526
0.001412236495
-0.002290126993
0.001410937651
-0.002836687256
0.001292055285
-0.003299577969
0.001079174061
-0.003647610591
0.0007903523648
-0.003855647547
0.0004420451684
-0.003905148881
5.315357453e-05
-0.003787132379
-0.0003530406935
-0.003503486408
-0.0007454956721
-0.003070828652
-0.001087516273
-0.002522290595
-0.00133864825
-0.001907758543
-0.001460153916
-0.001290759583
-0.001423462498
-0.0007406803802
-0.001221081668
-0.0003202444809
-0.0008780557594
-7.109852242e-05
-0.0004602549424
-8.191180594e-05
-0.00021697499
0.0005938317455
-0.0007186793128
0.001429902707
-0.00138536448
0.001931279633
-0.002126686225
0.002153558241
-0.002873798528
0.002158049857
-0.003572501266
0.001990757933
-0.004178195169
0.001684867955
-0.004652743974
0.00126490123
-0.004963338565
0.0007526398361
-0.005083174727
0.0001729897941
-0.004994232422
-0.0004419829592
-0.004690480265
-0.001049247804
-0.004182915573
-0.001595080953
-0.003503908977
-0.00201765484
-0.002710096297
-0.00225396658
-0.001881344712
-0.002252214045
-0.001113102602
-0.001989323721
-0.0005007657764
-0.001490392526
-0.000119129958
-0.0008418907154
-0.0002010417496
-0.000257313805
0.0008511454539
-0.0008511679353
0.00202375679
-0.001641972036
0.002722083829
-0.002526070071
0.003037656385
-0.003426259352
0.003058239178
-0.004282613078
0.002847111638
-0.005045334652
0.002447589499
-0.005670068527
0.0018896351
-0.006115770224
0.001198341553
-0.006345007742
0.0004022273447
-0.006326913521
-0.0004600771336
-0.00604162515
-0.001334536113
-0.005487581098
-0.00214912494
-0.004689370636
-0.002815865256
-0.003705260775
-0.003238076419
-0.002630862003
-0.003326612802
-0.001594037428
-0.003026148265
-0.0007363014969
-0.002348128402
-0.000182099584
-0.001396092564
-0.0003831413052
-0.0002911308323
0.001142276318
-0.0009639515056
0.002696577348
-0.001863834242
0.003621966537
-0.002877649341
0.004051471538
-0.003922808506
0.00410339841
-0.00493620543
0.003860508606
-0.005864980769
0.003376364869
-0.006660015486
0.002684669852
-0.007272410827
0.00181073693
-0.007652939293
0.0007827558361
-0.007754803439
-0.0003582129713
-0.007538853155
-0.001550486365
-0.006983191898
-0.002704786133
-0.00609510686
-0.003703950209
-0.004925146191
-0.004408037012
-0.003579081577
-0.004672677368
-0.002220143909
-0.004385085906
-0.001050730266
-0.003517542013
-0.0002684377544
-0.002178385024
-0.0006515790238
-0.0003159180887
0.001458194505
-0.001048580318
0.003429239569
-0.00203423025
0.004607616424
-0.003154446039
0.005171687331
-0.00432452421
0.005273476621
-0.005481106488
0.005017090922
-0.006571080629
0.004466339043
-0.007543190345
0.003656779621
-0.008342833248
0.002610379915
-0.008910137293
0.00135005997
-0.009181830687
-8.65195149e-05
-0.009096085521
-0.001636231502
-0.00860373616
-0.003197135467
-0.007683459849
-0.004624226464
-0.006363465055
-0.005728031719
-0.004745595719
-0.006290546612
-0.003022596043
-0.00610808551
-0.001469440202
-0.005070697805
-0.0003882059385
-0.003259619243
-0.001039784934
-0.0003291600799
0.001787354623
-0.001096320926
0.004196400502
-0.002134840073
0.005646135578
-0.003324998824
0.006361846094
-0.004583154953
0.0065316328
-0.005848763709
0.006282699737
-0.007071873499
0.005689448871
-0.008203056096
0.004787962247
-0.009186447792
0.003593771667
-0.009956065689
0.002119677972
-0.01043524602
0.0003926609472
-0.01054145332
-0.001530024083
-0.01019428741
-0.003544301315
-0.009333414433
-0.005485099402
-0.007946053836
-0.007115392268
-0.006105478077
-0.008131122296
-0.004012627477
-0.00820093602
-0.002014435271
-0.007068889928
-0.0005527564525
-0.004721297994
-0.00159254136
-0.0003297746036
0.002117129205
-0.001101631549
0.004968257552
-0.00215127641
0.006695780485
-0.003360842358
0.007571412057
-0.004650522181
0.007821312672
-0.005965556115
0.007597733766
-0.007262917896
0.006986810755
-0.008500062497
0.006025106923
-0.009626484064
0.004720193275
-0.01057806506
0.003071259013
-0.01127405775
0.001088653744
-0.01161761842
-0.001186463258
-0.01150111237
-0.003660807213
-0.01082003353
-0.006166178139
-0.009502551209
-0.008432874514
-0.00756022866
-0.01007344479
-0.005160594392
-0.01060057022
-0.002695957722
-0.009533526518
-0.0007741006074
-0.006643155027
-0.002366641931
-0.0003199375279
0.00243706671
-0.001066680269
0.005715000384
-0.00208039268
0.007709492985
-0.003246748122
0.008737767537
-0.004492204716
0.009066769287
-0.005770739852
0.008876268963
-0.007050163828
0.00826623485
-0.008300383382
0.007275326634
-0.009484146244
0.005903956273
-0.01054981333
0.00413692618
-0.01142547456
0.00196431503
-0.01201401989
-0.0005979178425
-0.01219362368
-0.003481203288
-0.01182077037
-0.006539031299
-0.01075515459
-0.009498490166
-0.008913519782
-0.0119150795
-0.006370655864
-0.01314343407
-0.003498831931
-0.01240535038
-0.001063103385
-0.009078883502
-0.003429745279
-0.0003074342067
0.002744500925
-0.001006650369
0.006414216598
-0.001938450933
0.00864129366
-0.002992019985
0.009791336692
-0.004102955045
0.01017770441
-0.005237612264
0.01001092622
-0.006378817555
0.009407440185
-0.007514304243
0.008410813436
-0.00862758358
0.007017235796
-0.009690120898
0.00519946369
-0.0106534284
0.002927622672
-0.01143784353
0.0001864973793
-0.01192968916
-0.002989357579
-0.01196515332
-0.006503567031
-0.01134381365
-0.01011982972
-0.009868955763
-0.01338993727
-0.007460043907
-0.01555234583
-0.004363756368
-0.01550163785
-0.001425497757
-0.01201714205
-0.004855243005
-0.0003089740984
0.003053475077
-0.0009556977501
0.007060940266
-0.001768711882
0.009454307854
-0.002639697966
0.01066232289
-0.003518646749
0.01105665332
-0.004390177897
0.01088245749
-0.005257239769
0.01027450213
-0.006130095078
0.009283668776
-0.007018338203
0.007905479
-0.007923993178
0.006105118825
-0.008832893
0.003836522689
-0.009704873682
0.001058478232
-0.01045133142
-0.002242899718
-0.01092463101
-0.006030267355
-0.01089541061
-0.01014905004
-0.01006512269
-0.0142202251
-0.008157402888
-0.01746006554
-0.005167636411
-0.01849140425
-0.001854331195
-0.01533044719
-0.006709574173
-0.0003553334462
0.003408808613
-0.0009735215272
0.007679128408
-0.001646389669
0.01012717603
-0.00226918298
0.01128511624
-0.002817439581
0.01160490998
-0.003304402828
0.0113694209
-0.00376020991
0.0107303094
-0.004221797492
0.00974525649
-0.004727070944
0.008410752514
-0.005310714647
0.006688762586
-0.005997610214
0.004523418362
-0.006792722831
0.001853590993
-0.007661447326
-0.001374175078
-0.008503789529
-0.005187925034
-0.009113797347
-0.009539042135
-0.009142953802
-0.01419106858
-0.008128662175
-0.01847435711
-0.005711256783
-0.02090880958
-0.00231829529
-0.01872340864
-0.009027869443
-0.0005004519145
0.00390926059
-0.001151525488
0.008330202106
-0.001675234036
0.01065088467
-0.001982236661
0.01159211894
-0.002096433641
0.01171910694
-0.002076632825
0.01134962007
-0.001989474431
0.01064315113
-0.001902218814
0.009658001071
-0.00188002875
0.00838856263
-0.001987075776
0.006795809732
-0.00228354692
0.004819889587
-0.002819785791
0.002389829942
-0.003623109684
-0.0005708510951
-0.004669700025
-0.004141334601
-0.005835361493
-0.008373380588
-0.006808226818
-0.0132182032
-0.007017043638
-0.01826554025
-0.005716583287
-0.0222092699
-0.002739609467
-0.02170038243
-0.0117674789
-0.0008309618553
0.004740222463
-0.001605073894
0.009104314204
-0.001951424567
0.01099723541
-0.001840036044
0.01148073063
-0.001386275431
0.01126534647
-0.0007191227711
0.0106824674
4.71116276e-05
0.009876916689
0.0008152552476
0.008889857488
0.001494202155
0.007709615841
0.001997293802
0.006292718229
0.002237444493
0.004579739017
0.002127360568
0.002499913952
0.001582247701
-2.57381642e-05
0.0005442213587
-0.003103308207
-0.0009850097124
-0.006844149472
-0.002828963685
-0.01137424919
-0.004459538065
-0.01663496585
-0.004810712472
-0.02185809548
-0.002944357588
-0.02356673729
-0.01471183649
-0.001465743995
0.006205966508
-0.002380083292
0.01001865355
-0.002373844607
0.01099099657
-0.001604146674
0.01071103274
-0.000350420395
0.01001162041
0.001162697537
0.009169349671
0.002770797726
0.008268816599
0.004348439225
0.007312216028
0.00579053068
0.006267524429
0.006996966492
0.005086282493
0.007864520491
0.003712185114
0.008281405477
0.002083029055
0.008123057239
0.0001326101359
0.007263834822
-0.00224408575
0.005584655396
-0.005164970024
0.003073427382
-0.008863021166
7.867926316e-05
-0.01364021772
-0.002445944728
-0.0193334715
-0.002601148394
-0.02341153363
-0.0173129849
-0.002365528869
0.008571495422
-0.002963922139
0.01061704714
-0.001923070717
0.009950145045
8.068725689e-05
0.008707274528
0.002534291394
0.007558016167
0.005139515574
0.006564125532
0.00771890985
0.00568942243
0.0101537216
0.004877404375
0.01234866767
0.00407257843
0.01421113584
0.003223814384
0.01563974953
0.00228357148
0.01651689983
0.001205878822
0.01669650544
-4.69954229e-05
0.01602664103
-0.001574221308
0.01430470115
-0.003443030135
0.01133252406
-0.005890844081
0.007055370116
-0.009363063774
0.002201472771
-0.01447957416
-0.001027386254
-0.02018267462
-0.01834037116
-0.002150326434
0.01072182171
-7.199494951e-05
0.008538716112
0.00374183279
0.006136317673
0.007719599003
0.004729508442
0.01156156804
0.003716047119
0.01514058279
0.00298511076
0.01839832759
0.002431677647
0.02130096209
0.001974769938
0.02381181814
0.001561722465
0.02587913884
0.001156493755
0.02743002738
0.0007326830059
0.02836426453
0.0002716417171
0.02857525574
-0.0002579865973
0.02788739275
-0.0008863582951
0.02609914682
-0.001654784195
0.02290812889
-0.002699826157
0.01790686427
-0.004361799169
0.01076684018
-0.00733955009
0.002912150871
-0.01232798533
-0.0154282203
0.01072182154
0.01926053745
0.02539685507
0.03012636354
0.03384241071
0.0368275215
0.03925919917
0.04123396913
0.04279569163
0.04395218542
0.04468486846
0.04495651019
0.04469852361
0.04381216531
0.04215738111
0.03945755494
0.03509575575
0.02775620565
0.0154282203
)
;

boundaryField
{
    movingWall
    {
        type            calculated;
        value           uniform 0;
    }
    fixedWalls
    {
        type            calculated;
        value           uniform 0;
    }
    frontAndBack
    {
        type            empty;
    }
}


// ************************************************************************* //
