/*--------------------------------*- C++ -*----------------------------------*\
  =========                 |
  \\      /  F ield         | OpenFOAM: The Open Source CFD Toolbox
   \\    /   O peration     | Website:  https://openfoam.org
    \\  /    A nd           | Version:  13
     \\/     M anipulation  |
\*---------------------------------------------------------------------------*/
FoamFile
{
    format      ascii;
    class       volVectorField;
    location    "22";
    object      U;
}
// * * * * * * * * * * * * * * * * * * * * * * * * * * * * * * * * * * * * * //

dimensions      [0 1 -1 0 0 0 0];

internalField   nonuniform List<vector> 
400
(
(0.0001606690261 -0.0001639597695 0)
(-0.0001646749091 4.63474508e-05 0)
(-0.001502494859 0.0002725985031 0)
(-0.003643342705 0.0004170983794 0)
(-0.00625986762 0.0004925274672 0)
(-0.009065358879 0.0005188892718 0)
(-0.01182273995 0.0005059004276 0)
(-0.01431336309 0.0004534328546 0)
(-0.01631508407 0.0003561359317 0)
(-0.01760163825 0.0002098030697 0)
(-0.01796599342 1.791562958e-05 0)
(-0.01726414998 -0.0002033024027 0)
(-0.01546901743 -0.0004226224992 0)
(-0.01271798111 -0.0005971606092 0)
(-0.009334011617 -0.0006816400883 0)
(-0.005801198792 -0.000642466693 0)
(-0.002685424291 -0.0004716705693 0)
(-0.0005029277267 -0.0001956477827 0)
(0.0004559308402 0.0001101122108 0)
(0.0002834536395 0.0002769909449 0)
(-6.000656449e-05 0.0001626478589 0)
(-0.001978458524 0.001853990262 0)
(-0.006095917537 0.003575544546 0)
(-0.01189644326 0.00476126337 0)
(-0.01867270698 0.005379812308 0)
(-0.02578985177 0.005503872952 0)
(-0.03267833745 0.005184974451 0)
(-0.03879537574 0.004434124201 0)
(-0.04360361667 0.003245797807 0)
(-0.04658577767 0.00163843041 0)
(-0.04730043382 -0.0003050647753 0)
(-0.04547018753 -0.002409820464 0)
(-0.04108259191 -0.004405712466 0)
(-0.03447407647 -0.005958214664 0)
(-0.02636170396 -0.00673624599 0)
(-0.01778988816 -0.006508305511 0)
(-0.009970749954 -0.005242832179 0)
(-0.004023298138 -0.003184030359 0)
(-0.0006443036972 -0.0009101494912 0)
(0.0001907619426 0.0005032361894 0)
(-0.0003459286311 0.001657507835 0)
(-0.004212983819 0.00612925186 0)
(-0.01115676408 0.01009072883 0)
(-0.02029675561 0.012764504 0)
(-0.03061806253 0.01410553864 0)
(-0.04126102127 0.01423590108 0)
(-0.05143878253 0.01324720115 0)
(-0.06039078142 0.01116899258 0)
(-0.0673711827 0.008018088823 0)
(-0.07167816009 0.003879919944 0)
(-0.07272664376 -0.001012478374 0)
(-0.07015456691 -0.006228142781 0)
(-0.06394199629 -0.01113841423 0)
(-0.05451410208 -0.0149843595 0)
(-0.04279105235 -0.01701959762 0)
(-0.03014253662 -0.01671548161 0)
(-0.01820867587 -0.01398438151 0)
(-0.008582037647 -0.009352735123 0)
(-0.00241558895 -0.004043640985 0)
(8.912790563e-06 -9.641624493e-05 0)
(-0.0006037676496 0.004346308047 0)
(-0.006358600451 0.01288318744 0)
(-0.01601009564 0.0197006094 0)
(-0.02824858514 0.02413158341 0)
(-0.04174935325 0.02623419244 0)
(-0.05548368001 0.02621692557 0)
(-0.0685279746 0.02422134872 0)
(-0.07998852136 0.02030128145 0)
(-0.08898709972 0.01450735172 0)
(-0.09469226762 0.007012809281 0)
(-0.09639419085 -0.001767734922 0)
(-0.09361508953 -0.01110287485 0)
(-0.08624096132 -0.0199415713 0)
(-0.07465333595 -0.02700935975 0)
(-0.05982671734 -0.03102276994 0)
(-0.04333789559 -0.03101761678 0)
(-0.02721938988 -0.02673470675 0)
(-0.01361813228 -0.01894180025 0)
(-0.004330777779 -0.009556649865 0)
(-0.0001476549808 -0.001628463489 0)
(-0.0008259372073 0.00812135983 0)
(-0.008287176911 0.02191396587 0)
(-0.02041533985 0.03211797093 0)
(-0.03547885902 0.03848269884 0)
(-0.05185983493 0.04132792287 0)
(-0.06840076568 0.04101822693 0)
(-0.08410128728 0.03776864275 0)
(-0.09799968144 0.03166012901 0)
(-0.109139921 0.02277062156 0)
(-0.1165891151 0.01134854986 0)
(-0.1194998271 -0.00202609621 0)
(-0.1172147093 -0.01633248361 0)
(-0.1094106323 -0.03008412183 0)
(-0.09627404832 -0.04142698524 0)
(-0.07867991868 -0.04840244155 0)
(-0.0583095631 -0.04940057344 0)
(-0.03759939702 -0.04375788565 0)
(-0.01941427584 -0.03232403247 0)
(-0.006469446224 -0.01771266288 0)
(-0.000291339758 -0.004140787652 0)
(-0.001011443347 0.01284454508 0)
(-0.009943908817 0.03296418969 0)
(-0.02423343491 0.04704623882 0)
(-0.04178138717 0.05551311412 0)
(-0.06071944537 0.05910657367 0)
(-0.07980432386 0.05843199974 0)
(-0.09801149087 0.05381072399 0)
(-0.1143671068 0.04535017749 0)
(-0.1278839119 0.0331303283 0)
(-0.1375503227 0.01742832471 0)
(-0.1423663043 -0.001072643234 0)
(-0.1414310804 -0.02112434235 0)
(-0.1340946894 -0.04083781548 0)
(-0.1201828121 -0.05773865782 0)
(-0.100281868 -0.06903355238 0)
(-0.07601983237 -0.07216956585 0)
(-0.05019719026 -0.06569551334 0)
(-0.02656176731 -0.0502265957 0)
(-0.009113313793 -0.0290237235 0)
(-0.0004633085704 -0.007778007997 0)
(-0.001155409416 0.01835947672 0)
(-0.01127543156 0.0457176055 0)
(-0.0273280994 0.06411689587 0)
(-0.0469260866 0.07486075342 0)
(-0.06800839733 0.07925873343 0)
(-0.08929242791 0.07824434438 0)
(-0.10978009 0.07228281556 0)
(-0.1285401369 0.06150506953 0)
(-0.1446052438 0.04595389854 0)
(-0.1569217901 0.02586162996 0)
(-0.1643460523 0.001912672218 0)
(-0.1657015708 -0.02453110812 0)
(-0.1599217159 -0.05126764451 0)
(-0.146309839 -0.07521219266 0)
(-0.1249327086 -0.0925940128 0)
(-0.09710391979 -0.09955931672 0)
(-0.06580563972 -0.09331253187 0)
(-0.03573785787 -0.07366978084 0)
(-0.0126235082 -0.04433105849 0)
(-0.0007131396598 -0.01286235825 0)
(-0.001250938602 0.02448135629 0)
(-0.01222324115 0.059787264 0)
(-0.0295525509 0.08286263517 0)
(-0.05064739916 0.09604706001 0)
(-0.07331441146 0.1013438507 0)
(-0.09627672849 0.1001002283 0)
(-0.1186115686 0.09296769477 0)
(-0.1394875995 0.08010064735 0)
(-0.1580211534 0.06146173071 0)
(-0.1731808642 0.03715114432 0)
(-0.183734872 0.007724969114 0)
(-0.1882593651 -0.02550163159 0)
(-0.1852449455 -0.06017391602 0)
(-0.173354576 -0.09269903175 0)
(-0.1518883102 -0.118272818 0)
(-0.1214710493 -0.1313980224 0)
(-0.08486496879 -0.1272244219 0)
(-0.04755575344 -0.103843685 0)
(-0.01740096901 -0.06480915932 0)
(-0.001102009732 -0.01991958764 0)
(-0.001293579332 0.03099565166 0)
(-0.01274300562 0.07471519689 0)
(-0.03078107743 0.1027071497 0)
(-0.05268836027 0.1184428828 0)
(-0.0761917354 0.124725412 0)
(-0.1000591083 0.1234004595 0)
(-0.1234885472 0.1153566669 0)
(-0.1458084949 0.1007834511 0)
(-0.1662968823 0.07953104247 0)
(-0.18404176 0.05148587956 0)
(-0.1978351549 0.01693921664 0)
(-0.2061171227 -0.02303228945 0)
(-0.2070104497 -0.06615681538 0)
(-0.1985155174 -0.1085654021 0)
(-0.1789673479 -0.1445376543 0)
(-0.1478631677 -0.1667356751 0)
(-0.1070996101 -0.1674998722 0)
(-0.06238501946 -0.141848605 0)
(-0.02386222127 -0.09190112659 0)
(-0.001711143085 -0.02969666548 0)
(-0.001288292403 0.03767387204 0)
(-0.01284091876 0.08999480728 0)
(-0.03097256487 0.1229745664 0)
(-0.05288941293 0.1412532956 0)
(-0.07627719133 0.1485258806 0)
(-0.0999815995 0.1472246601 0)
(-0.1233641198 0.1385391302 0)
(-0.1459731587 0.1227252959 0)
(-0.1673349852 0.09951454198 0)
(-0.1867795043 0.06852607379 0)
(-0.203285436 0.02967130974 0)
(-0.2153520673 -0.01640767348 0)
(-0.2209313336 -0.06781385198 0)
(-0.2174890161 -0.1207761335 0)
(-0.2023385109 -0.1690221429 0)
(-0.1734634453 -0.2034869611 0)
(-0.1310841755 -0.2131339468 0)
(-0.08007547144 -0.1882399326 0)
(-0.03238864874 -0.1271479609 0)
(-0.002653040772 -0.04317679876 0)
(-0.00125936299 0.04431431249 0)
(-0.01262499589 0.1051281863 0)
(-0.03025827253 0.1429298801 0)
(-0.05130900696 0.1635318476 0)
(-0.073446753 0.1716166021 0)
(-0.09563154287 0.1703003051 0)
(-0.1174343556 0.1611507205 0)
(-0.1386827061 0.1445449687 0)
(-0.159235728 0.1201244852 0)
(-0.1787918856 0.08723472533 0)
(-0.1967020228 0.04534370245 0)
(-0.2117768797 -0.005499421192 0)
(-0.2221046005 -0.06407652414 0)
(-0.2249224911 -0.1271927626 0)
(-0.2167018067 -0.1886567093 0)
(-0.1937493687 -0.2382477501 0)
(-0.1538414613 -0.2615032542 0)
(-0.099560416 -0.2423600179 0)
(-0.04320033478 -0.1718398472 0)
(-0.004081995274 -0.06157826177 0)
(-0.001264535373 0.05081726584 0)
(-0.01237193641 0.1197275663 0)
(-0.02904515671 0.1618556183 0)
(-0.04835407016 0.184228534 0)
(-0.06797652517 0.1926509213 0)
(-0.08705102832 0.1910342254 0)
(-0.1054238418 0.1814077816 0)
(-0.1232623334 0.164338418 0)
(-0.1408280178 0.1394380927 0)
(-0.1582889608 0.1058248279 0)
(-0.1755289713 0.06253205881 0)
(-0.1919230997 0.008940683813 0)
(-0.2060531369 -0.05464349583 0)
(-0.215386691 -0.1261005085 0)
(-0.216023332 -0.200148843 0)
(-0.2028232161 -0.2664911569 0)
(-0.170696527 -0.3080391646 0)
(-0.1184173245 -0.3015472177 0)
(-0.05610065082 -0.2263967649 0)
(-0.006198003348 -0.08630084335 0)
(-0.001417648347 0.05730929349 0)
(-0.01261540682 0.1336645129 0)
(-0.02812397434 0.1791549798 0)
(-0.04488514275 0.2022570269 0)
(-0.06064626655 0.2101283504 0)
(-0.07485946931 0.2076001025 0)
(-0.08775778082 0.197229771 0)
(-0.09991832882 0.1798310267 0)
(-0.1120502826 0.1550561718 0)
(-0.1248396769 0.1218808155 0)
(-0.1387892871 0.07898769694 0)
(-0.1540065876 0.02513093041 0)
(-0.1698869375 -0.04038094542 0)
(-0.1846521369 -0.1168707712 0)
(-0.194746648 -0.2008105667 0)
(-0.1943111315 -0.2832946843 0)
(-0.175620464 -0.3464310099 0)
(-0.13259574 -0.3605036776 0)
(-0.07006568988 -0.2894303905 0)
(-0.009232617741 -0.1187409172 0)
(-0.001929840846 0.06434006354 0)
(-0.01426815679 0.1472605269 0)
(-0.02876074436 0.1944460467 0)
(-0.04223014404 0.2165365773 0)
(-0.05267681618 0.2224458194 0)
(-0.0601387368 0.2180384454 0)
(-0.06542160636 0.2064049057 0)
(-0.06959879357 0.188608814 0)
(-0.07384459053 0.1643836889 0)
(-0.07934478434 0.1326520434 0)
(-0.08720300191 0.09188011074 0)
(-0.09829212195 0.04035327057 0)
(-0.1129890044 -0.02350159341 0)
(-0.1306976668 -0.1005263707 0)
(-0.1490248972 -0.1895349083 0)
(-0.1625710127 -0.2845471867 0)
(-0.1620593964 -0.3695739355 0)
(-0.1365189226 -0.4112652172 0)
(-0.08272206485 -0.3566338981 0)
(-0.01336570725 -0.1598214727 0)
(-0.003168520583 0.07317423821 0)
(-0.01876814282 0.161484586 0)
(-0.03267878041 0.2075616212 0)
(-0.04191811466 0.2259147961 0)
(-0.04523634583 0.2278470708 0)
(-0.04375949503 0.2202783123 0)
(-0.039141684 0.2066983128 0)
(-0.03305005841 0.1883168096 0)
(-0.02711151265 0.1649177669 0)
(-0.02293307282 0.1354235317 0)
(-0.02210631366 0.09822182145 0)
(-0.02615850507 0.05135967692 0)
(-0.03640767272 -0.007306493307 0)
(-0.05361432346 -0.0798462607 0)
(-0.07719081235 -0.1674699531 0)
(-0.1035655563 -0.2682253781 0)
(-0.1238297745 -0.3710949574 0)
(-0.1234760254 -0.4440919961 0)
(-0.08980123076 -0.420041946 0)
(-0.01840984223 -0.2091753438 0)
(-0.00564286212 0.0862809124 0)
(-0.02805961614 0.1780385056 0)
(-0.04149520668 0.2181813846 0)
(-0.04444171425 0.2287032058 0)
(-0.03766651674 0.2240475692 0)
(-0.02423927723 0.2118930345 0)
(-0.006990530824 0.1957354838 0)
(0.0117591258 0.176663444 0)
(0.02999826763 0.1543862093 0)
(0.04583811045 0.127814642 0)
(0.05737949454 0.09536186188 0)
(0.06265197858 0.05507054119 0)
(0.05961627141 0.004633085219 0)
(0.04630586854 -0.05865284933 0)
(0.02132433476 -0.137786568 0)
(-0.01463821864 -0.234978862 0)
(-0.05542029672 -0.3467227092 0)
(-0.08587980019 -0.4489542658 0)
(-0.08465628399 -0.4683747282 0)
(-0.02315691597 -0.2647104739 0)
(-0.009904710876 0.1088848513 0)
(-0.04363911063 0.1990431439 0)
(-0.05382627764 0.2243527627 0)
(-0.04455293638 0.22119582 0)
(-0.02181404045 0.2071191526 0)
(0.008250766106 0.1893627129 0)
(0.04156416316 0.170576181 0)
(0.07535256093 0.1512532416 0)
(0.1074763415 0.1307997399 0)
(0.1360289616 0.1080563826 0)
(0.1590739275 0.08153054633 0)
(0.1744813 0.04945401688 0)
(0.1798153226 0.009731973423 0)
(0.1723007805 -0.04028843973 0)
(0.1489396413 -0.1042837637 0)
(0.1073484284 -0.1874662779 0)
(0.04889244729 -0.2946497043 0)
(-0.01497279259 -0.4164536378 0)
(-0.05803255259 -0.4875149358 0)
(-0.0248074987 -0.3227422581 0)
(-0.01772411686 0.1520436996 0)
(-0.06147777502 0.2237342262 0)
(-0.05301078114 0.2172108402 0)
(-0.01592141913 0.1939418731 0)
(0.03291494379 0.169698384 0)
(0.08516902363 0.1475907388 0)
(0.1369706222 0.1280058587 0)
(0.1861185515 0.1103118657 0)
(0.2310716039 0.09341005879 0)
(0.2704450367 0.07605722639 0)
(0.3026933709 0.0569464285 0)
(0.3259133389 0.03466605507 0)
(0.337674709 0.007629410485 0)
(0.3349141206 -0.02619845489 0)
(0.313754449 -0.06997602613 0)
(0.2695221385 -0.1295932506 0)
(0.1979573472 -0.2158754996 0)
(0.1013870827 -0.3379211935 0)
(0.003388570086 -0.4563874687 0)
(-0.01621285743 -0.3687093791 0)
(-0.024084277 0.2085829264 0)
(-0.03768250508 0.2306816083 0)
(0.03739465634 0.176576814 0)
(0.1248154205 0.1365476327 0)
(0.2049957301 0.1084842522 0)
(0.2764648562 0.08750871845 0)
(0.3399891885 0.07142706761 0)
(0.395964719 0.05862605001 0)
(0.4445324986 0.04768847853 0)
(0.4854721863 0.03746201948 0)
(0.518202155 0.02694262535 0)
(0.5414619966 0.0152293431 0)
(0.5532892105 0.001406067518 0)
(0.5509505597 -0.01562300427 0)
(0.5305407963 -0.03770353689 0)
(0.4864917593 -0.06874848509 0)
(0.4103152333 -0.1189185898 0)
(0.2902798435 -0.2093243038 0)
(0.132788108 -0.3383041484 0)
(0.03846998773 -0.3402335355 0)
(0.2419666103 0.1092299876 0)
(0.3137454138 0.09725718798 0)
(0.4447367686 0.05703120972 0)
(0.5499734059 0.03509609184 0)
(0.6241302512 0.0236696302 0)
(0.6792627688 0.01661040486 0)
(0.7226999538 0.01188446081 0)
(0.7576366083 0.008630882451 0)
(0.7856856662 0.006245624314 0)
(0.8076764425 0.004283591395 0)
(0.8237926777 0.002429361619 0)
(0.8336362218 0.0004666447319 0)
(0.8363006082 -0.001786465171 0)
(0.8303127271 -0.004483888618 0)
(0.8132958625 -0.007953037917 0)
(0.7812870204 -0.01287559312 0)
(0.7259212648 -0.02130267571 0)
(0.6300381688 -0.03820268152 0)
(0.4593084468 -0.0857275302 0)
(0.3048724596 -0.1257296982 0)
)
;

boundaryField
{
    movingWall
    {
        type            fixedValue;
        value           uniform (1 0 0);
    }
    fixedWalls
    {
        type            fixedValue;
        value           uniform (0 0 0);
    }
    frontAndBack
    {
        type            empty;
    }
}


// ************************************************************************* //
