/*--------------------------------*- C++ -*----------------------------------*\
  =========                 |
  \\      /  F ield         | OpenFOAM: The Open Source CFD Toolbox
   \\    /   O peration     | Website:  https://openfoam.org
    \\  /    A nd           | Version:  13
     \\/     M anipulation  |
\*---------------------------------------------------------------------------*/
FoamFile
{
    format      ascii;
    class       vectorField;
    location    "22";
    object      U_all;
}
// * * * * * * * * * * * * * * * * * * * * * * * * * * * * * * * * * * * * * //


400
(
(1.081332581e-05 -3.79137985e-05 0)
(-0.0006662263415 0.0004129815864 -1.539843866e-23)
(-0.002185125091 0.0009202524607 0)
(-0.004047228472 0.00131256165 0)
(-0.005970906923 0.001534803579 6.824993688e-25)
(-0.0077615068 0.00156957905 4.153593342e-24)
(-0.009283025903 0.00142332342 -7.309072301e-24)
(-0.01043427294 0.001119541548 7.597431128e-24)
(-0.01113510438 0.0006959794633 -2.100690966e-25)
(-0.01132547139 0.0002030592604 -4.002760291e-24)
(-0.01097031051 -0.0003001737951 5.812540474e-24)
(-0.01007113757 -0.0007474006673 -5.936970831e-23)
(-0.008679026465 -0.001075422269 -6.560506689e-23)
(-0.006902362934 -0.00123291491 -7.792654225e-23)
(-0.004910592093 -0.001192552892 4.578985124e-24)
(-0.002927361881 -0.0009619012616 -4.143732326e-24)
(-0.001205600081 -0.000591263628 -2.002765176e-22)
(-1.939560542e-05 -0.0001699867218 0)
(0.0005179194542 0.0001719594627 1.527701862e-25)
(0.000222691194 0.0003058959075 -2.7892062e-24)
(-0.0002634026543 0.0008287202058 1.39148784e-25)
(-0.002702917956 0.003383204556 1.549446025e-23)
(-0.006906042371 0.00560343447 1.537523364e-25)
(-0.01195008466 0.007006874286 -8.45702614e-25)
(-0.01713180477 0.007552362021 1.156381141e-24)
(-0.0219712256 0.007292880425 1.300282721e-23)
(-0.02610594349 0.00632081929 1.454155162e-24)
(-0.02926040055 0.004753476151 -7.347409579e-24)
(-0.03122134895 0.002736860501 1.018629089e-23)
(-0.03183679559 0.000452551517 4.519365096e-24)
(-0.03102285455 -0.001883585658 -6.328587882e-24)
(-0.02878910794 -0.004022157755 2.959895025e-24)
(-0.02526819905 -0.005707310759 3.899512211e-23)
(-0.0207297181 -0.006706359618 -1.957537874e-24)
(-0.01558832093 -0.006853250344 3.760244325e-24)
(-0.01038461398 -0.006096870806 -9.761708367e-23)
(-0.005730303416 -0.004545963335 9.658855889e-23)
(-0.002233650843 -0.002507543041 -3.997294547e-25)
(-0.0001820369839 -0.0005027151867 4.098106788e-25)
(8.339650215e-05 0.0006096532549 0)
(-0.0004187500616 0.002934515394 -2.918307939e-25)
(-0.004646960143 0.008802268587 1.712737931e-23)
(-0.01136963978 0.01323776016 -8.174350895e-24)
(-0.01932333523 0.01578888975 -2.056883904e-25)
(-0.0274685431 0.01652678728 2.020673401e-25)
(-0.03511078664 0.01564151773 8.812967943e-27)
(-0.04170533611 0.0133576957 -1.284564447e-24)
(-0.04682689775 0.009918330251 -4.592971306e-25)
(-0.05014081652 0.005601959068 -1.066615635e-23)
(-0.05140343164 0.000744939878 0)
(-0.05046966502 -0.0042403723 0)
(-0.04732980943 -0.008885074967 2.675062051e-23)
(-0.04215330959 -0.01267922973 2.817027058e-23)
(-0.03530983754 -0.01513341885 -1.649034368e-24)
(-0.02738686271 -0.01585951782 4.855918348e-23)
(-0.01916824797 -0.0146715252 9.439395972e-23)
(-0.01156010146 -0.01169254833 3.997717496e-23)
(-0.005465229273 -0.007450474381 4.214827629e-25)
(-0.001451175214 -0.002936356684 1.035694529e-25)
(-9.072790574e-05 0.0002254789665 0)
(-0.0005023479478 0.006044130231 -4.258119663e-23)
(-0.006401357981 0.01636737347 -1.702937652e-23)
(-0.01553169516 0.0235544712 8.101223748e-24)
(-0.02627356765 0.02743606051 0)
(-0.03727973735 0.02831547514 0)
(-0.04768072423 0.02658280802 0)
(-0.05678546939 0.02262739555 -4.68097044e-26)
(-0.0640416784 0.01683373329 -2.098011732e-24)
(-0.06899821296 0.009621460149 0)
(-0.07129583208 0.001491993929 1.645589703e-24)
(-0.07069679316 -0.006934053926 2.809243716e-25)
(-0.06711982471 -0.01492651854 -2.817109539e-25)
(-0.06069004631 -0.02166281795 0)
(-0.05180030372 -0.02631132346 4.143026153e-23)
(-0.04114460835 -0.02815626563 -4.691345333e-23)
(-0.02971619306 -0.02677009013 -2.773238296e-23)
(-0.01873518777 -0.02221286314 -3.983224676e-23)
(-0.009487166808 -0.01521809837 7.794325851e-25)
(-0.002976689163 -0.007298165644 9.764101135e-23)
(-0.0002318558626 -0.0008665532172 0)
(-0.0005314843344 0.01009290755 4.278839255e-23)
(-0.007981861662 0.02594674455 4.768309364e-25)
(-0.01939275536 0.03642127095 -4.659402119e-25)
(-0.03281700324 0.04184675205 0)
(-0.04663743364 0.04288655157 7.762421764e-25)
(-0.05984050741 0.04019345438 -7.654793218e-25)
(-0.0716192617 0.03434180537 3.664838343e-23)
(-0.08131257487 0.02585315968 1.840310259e-23)
(-0.08835042193 0.01527187747 6.215703379e-24)
(-0.09223911315 0.003247444959 -1.647506837e-24)
(-0.09258885364 -0.009404298566 0)
(-0.08916182107 -0.02166939961 4.385400305e-25)
(-0.08194775788 -0.03236079004 1.014321024e-23)
(-0.07125888412 -0.04020526919 -4.359698482e-23)
(-0.05781248809 -0.04401344576 1.939556599e-24)
(-0.04278041323 -0.04294225864 4.239921025e-23)
(-0.02775117057 -0.03682903421 -3.878378371e-25)
(-0.01454896673 -0.02652468084 0)
(-0.004858946781 -0.0140837613 5.43518026e-23)
(-0.0003640921225 -0.002847146615 -2.562125148e-22)
(-0.0005271047657 0.01499612443 9.829660966e-23)
(-0.009376008541 0.0373824178 -4.899033984e-25)
(-0.02287725296 0.05169165947 0)
(-0.03882285601 0.05893018103 0)
(-0.05537605183 0.06024441938 -8.724607674e-23)
(-0.07141563072 0.05660911942 -8.491124247e-23)
(-0.08605127452 0.04879406589 -4.059343322e-23)
(-0.09853405896 0.03743501944 -1.500366868e-23)
(-0.1081768515 0.02315819555 -5.348370794e-24)
(-0.114326594 0.006711224079 -8.16122655e-24)
(-0.1163872113 -0.01092838694 6.58598988e-24)
(-0.1138774314 -0.02848237402 8.798150971e-24)
(-0.1065340629 -0.04436151303 -1.891511224e-23)
(-0.09445555994 -0.05674337677 4.486457813e-24)
(-0.07825859069 -0.06377301209 0)
(-0.05922164102 -0.06392600073 -1.584945316e-23)
(-0.03933509373 -0.05653114562 -2.037497234e-26)
(-0.02113939747 -0.04235359235 0)
(-0.00731784709 -0.02398033347 -1.517853757e-22)
(-0.0005215290415 -0.005925387215 6.05014875e-22)
(-0.0004989987682 0.02064149309 -9.762721858e-23)
(-0.01052760409 0.05044413508 2.830459087e-22)
(-0.02582497091 0.06911144246 1.526071548e-22)
(-0.04401370644 0.07847765245 3.616825273e-24)
(-0.06309668943 0.08028033722 -7.317653036e-23)
(-0.08189062159 0.07586785439 9.035036053e-23)
(-0.09946194939 0.06620717611 -3.58731522e-24)
(-0.1150053636 0.05201072753 -1.727440695e-24)
(-0.1277334831 0.03392122803 2.521520222e-24)
(-0.1368284125 0.01270391083 7.369763233e-24)
(-0.1414524414 -0.01058251195 -6.486541001e-24)
(-0.1408070759 -0.03445167633 -9.756710112e-24)
(-0.1342583249 -0.05691661613 -3.261129082e-23)
(-0.121530779 -0.07552048793 -3.641418512e-23)
(-0.1029555205 -0.08752952054 5.605002998e-25)
(-0.07975478246 -0.09037988644 0)
(-0.05426083483 -0.08243505449 0)
(-0.02986831781 -0.06397037386 -2.901447117e-24)
(-0.01066165574 -0.0379843851 2.96579396e-24)
(-0.0007349792805 -0.01050020287 1.027661558e-22)
(-0.0004478821686 0.02686722324 0)
(-0.01134755381 0.06479503132 2.001615655e-22)
(-0.02801184621 0.08827957164 8.960630647e-23)
(-0.04799155743 0.1001054751 0)
(-0.06919614912 0.1026902963 1.568987809e-22)
(-0.09043126173 0.09780065908 0)
(-0.1107685165 0.08659926278 -1.427677632e-22)
(-0.1293930543 0.06983183517 6.511636752e-24)
(-0.1454597247 0.04807914716 0)
(-0.1580171906 0.02201895655 0)
(-0.1659953705 -0.007328667943 -1.373184521e-24)
(-0.1682497467 -0.03837871606 -9.304408811e-25)
(-0.1636901637 -0.06882690047 1.490356045e-22)
(-0.1515062164 -0.09556770911 -4.703650337e-23)
(-0.1315009703 -0.1148138684 -2.556147957e-24)
(-0.1045497651 -0.1225548597 1.530086189e-24)
(-0.07308660526 -0.1155384059 -1.554222224e-24)
(-0.04134625828 -0.09282127443 0)
(-0.01525078995 -0.05740213667 3.201169558e-24)
(-0.001044168383 -0.01714573939 -1.012217304e-21)
(-0.0003744929246 0.03345691165 0)
(-0.01174882357 0.07997473525 -1.127568582e-22)
(-0.02920386971 0.1086200305 -6.189040396e-22)
(-0.05031187602 0.1232027566 -3.754089439e-22)
(-0.0729552014 0.1268898511 0)
(-0.09597942683 0.1219082657 4.11794166e-22)
(-0.1185153211 0.1096213587 1.260297104e-22)
(-0.1398011927 0.0907735339 -5.57916491e-24)
(-0.1590077391 0.06580998924 5.551551045e-24)
(-0.1751311616 0.03520992 0)
(-0.186940939 -0.0001908048998 2.910785229e-23)
(-0.1930024666 -0.03888722822 4.692792318e-24)
(-0.1917668326 -0.07842490076 -1.075897032e-22)
(-0.1817743188 -0.1151698171 7.995618497e-23)
(-0.1620454106 -0.1442416889 -2.41778638e-22)
(-0.1326965758 -0.1598365726 0)
(-0.09577176286 -0.1562947568 0)
(-0.05601200238 -0.130285217 0)
(-0.02147682749 -0.0838035739 0)
(-0.001500218454 -0.02665288226 5.568553423e-22)
(-0.0002874826697 0.04015410577 0)
(-0.0116929847 0.0954203752 -3.491924045e-22)
(-0.02924254783 0.1293865712 8.930276141e-22)
(-0.05060604897 0.1469073985 3.616002213e-22)
(-0.07369573424 0.1519532302 0)
(-0.09744488054 0.1472569681 -3.861136444e-22)
(-0.1210990868 0.1344045005 -3.173309305e-23)
(-0.1440236551 0.1141295777 3.332009262e-22)
(-0.1655049141 0.086695621 1.768879854e-22)
(-0.1846151494 0.05229210793 -4.058786967e-23)
(-0.2001227992 0.01142307691 1.656577787e-23)
(-0.2104525249 -0.03470378583 -8.261566469e-24)
(-0.2137112937 -0.08375130873 3.370562621e-22)
(-0.2078122713 -0.131858257 0)
(-0.1908150918 -0.1732562147 2.418954457e-22)
(-0.1616257451 -0.2002392695 5.768829914e-24)
(-0.1211599623 -0.2039932263 -5.854860251e-24)
(-0.07384570697 -0.1771963972 1.546537701e-22)
(-0.02971599179 -0.1188541751 -5.429748834e-24)
(-0.002179357148 -0.04005071514 0)
(-0.0002118766525 0.04670958692 0)
(-0.01125015025 0.110533589 0)
(-0.02815609971 0.1497139397 -5.021438029e-22)
(-0.04874405371 0.1701283448 -1.880529515e-23)
(-0.07099940949 0.1766032271 2.037819112e-23)
(-0.09399239363 0.1724331522 -2.013758214e-23)
(-0.117140826 0.1594719768 -2.316196332e-23)
(-0.1400151015 0.1384705606 -3.028821411e-22)
(-0.1621300133 0.1095115921 6.697896706e-23)
(-0.1827931353 0.07245275133 4.511638035e-23)
(-0.2009809029 0.02735513001 -4.576128102e-23)
(-0.215224375 -0.02507675818 0)
(-0.2235533542 -0.08296961573 -7.834056244e-23)
(-0.2234599022 -0.1427088481 0)
(-0.2120640661 -0.1981629831 -3.738243827e-22)
(-0.1867391657 -0.2400570494 5.242587933e-22)
(-0.1464396315 -0.2560573227 0)
(-0.09394235755 -0.2331035083 -1.492141235e-22)
(-0.04021825991 -0.163949324 1.935636637e-22)
(-0.003200900526 -0.05860634193 -3.409624326e-22)
(-0.0002017520031 0.05296934088 0)
(-0.01067355566 0.1248014458 9.181068886e-22)
(-0.0262861599 0.1687212284 -2.440170016e-23)
(-0.04501329712 0.1916223256 9.191492377e-22)
(-0.06494855132 0.1992698351 -2.511526805e-23)
(-0.08536917433 0.1955912352 2.838156774e-23)
(-0.1059338261 0.1827739926 -2.812249107e-23)
(-0.126496159 0.1616489339 -1.660506064e-23)
(-0.1469039808 0.132172278 -5.258945983e-22)
(-0.1668506418 0.09389771582 -8.904441545e-24)
(-0.1857354819 0.04641162672 9.657893453e-24)
(-0.2024834059 -0.01022812519 3.31240918e-22)
(-0.2154202715 -0.07498533095 -5.819372507e-22)
(-0.2220247745 -0.1450158034 0)
(-0.2188055371 -0.2146586779 8.88480747e-22)
(-0.201626375 -0.2739828054 -4.938663177e-22)
(-0.1668630567 -0.3075618804 -1.571512487e-23)
(-0.114020407 -0.2953633333 0)
(-0.05288353918 -0.2195669661 -1.888302535e-22)
(-0.004748998066 -0.08376759424 3.358715142e-22)
(-0.0003644493893 0.05901741427 1.550721075e-23)
(-0.01049743525 0.1379737202 -8.762479524e-22)
(-0.024417382 0.1856606471 -1.156865076e-21)
(-0.0402723894 0.2101166721 -8.627255051e-22)
(-0.05631387855 0.2182139153 0)
(-0.07215640933 0.2146010754 3.513086386e-23)
(-0.08780120596 0.2018657192 -7.293364339e-23)
(-0.1034663399 0.1809923026 5.866673483e-23)
(-0.1194094206 0.1518967679 3.020693017e-22)
(-0.1358049781 0.1139169907 -1.127971124e-23)
(-0.1526205505 0.06622030481 0)
(-0.1694644674 0.008186446628 -3.603191884e-22)
(-0.1852878027 -0.06014827693 7.514363216e-22)
(-0.1980553319 -0.1372614088 8.830353363e-22)
(-0.2043631045 -0.2189115308 -5.295357521e-22)
(-0.1991036554 -0.2959553946 5.161611664e-22)
(-0.1760636654 -0.3513904305 1.077607476e-23)
(-0.1300898597 -0.358398562 -1.094912476e-23)
(-0.06688760839 -0.284314278 -8.232261848e-23)
(-0.007083177411 -0.1169906775 0)
(-0.0009098512135 0.06539579274 -1.911182697e-23)
(-0.01167825038 0.1502694294 -1.326777055e-21)
(-0.0238938617 0.20004872 1.094054953e-21)
(-0.03602113116 0.2244023575 6.733949534e-22)
(-0.04658322174 0.2316401107 6.013728065e-22)
(-0.05578258481 0.2272234408 6.642912006e-22)
(-0.06412636723 0.2141657771 -4.457901412e-23)
(-0.07229092172 0.1936426839 -3.460791161e-22)
(-0.08098611022 0.1656010348 2.151831456e-22)
(-0.09088900802 0.1292734038 0)
(-0.1025721377 0.0835370831 0)
(-0.1163794363 0.02720890995 2.655077368e-22)
(-0.1321754543 -0.04060973055 8.195182314e-23)
(-0.1489403588 -0.1200017156 -2.820964215e-22)
(-0.1641414389 -0.2089184586 -5.410557706e-23)
(-0.1727979104 -0.3006870283 1.30209063e-22)
(-0.1670379119 -0.3793198052 -3.399631794e-22)
(-0.1365325981 -0.4136316364 -1.601441826e-23)
(-0.08018321949 -0.3538205725 8.22101137e-23)
(-0.01050758135 -0.1594072259 -6.033438021e-22)
(-0.002260771926 0.07348565038 0)
(-0.01580631219 0.1626428621 2.14558945e-21)
(-0.02665657374 0.2117766322 0)
(-0.03423303606 0.2333787357 -1.351630411e-21)
(-0.03760679623 0.2377609854 6.184887132e-23)
(-0.03801232441 0.2312419612 -6.192115794e-22)
(-0.03670014636 0.2171801659 -4.755615555e-22)
(-0.03490928794 0.1968882111 8.300028855e-22)
(-0.03380818688 0.1703333723 -1.885405363e-22)
(-0.03451886486 0.1367251632 0)
(-0.03813564477 0.09480285366 0)
(-0.04566921457 0.04305098787 2.41104609e-23)
(-0.05792632676 -0.02012871942 -6.006544094e-22)
(-0.07516282681 -0.09619733544 -4.309095137e-22)
(-0.09646661748 -0.1855467473 4.637506656e-22)
(-0.1183585024 -0.285348084 -6.487809837e-22)
(-0.1332805862 -0.3838295633 9.116979435e-23)
(-0.1265404345 -0.450426262 2.945319283e-23)
(-0.08899338446 -0.4198441721 5.660920295e-22)
(-0.01526928354 -0.2111667232 6.022068353e-22)
(-0.005181134393 0.08597885687 0)
(-0.0252583294 0.1766230887 1.465646403e-22)
(-0.03484059969 0.2205862657 -4.916622128e-23)
(-0.03641059419 0.2354738869 7.642023394e-22)
(-0.03019892044 0.234328491 -7.00449672e-22)
(-0.01918291651 0.2241498265 4.745883339e-23)
(-0.005634293656 0.2083448999 -1.018551261e-22)
(0.00854914671 0.1881199825 -3.389418715e-22)
(0.02177774345 0.1633906436 2.062584025e-22)
(0.03260695017 0.1333270673 0)
(0.03956451153 0.09664620014 0)
(0.04115128343 0.05174749507 -2.902390343e-22)
(0.03576735929 -0.003247896116 0)
(0.02196595245 -0.07057625071 -5.511868178e-22)
(-0.001278885327 -0.1525668979 -1.491234284e-23)
(-0.0331165154 -0.250589081 2.559457041e-23)
(-0.06910179726 -0.3599284598 2.202583131e-22)
(-0.0922844499 -0.4575369027 4.790742169e-24)
(-0.08718341349 -0.4698067247 -5.789928619e-22)
(-0.02103153403 -0.2698931721 0)
(-0.01111643974 0.1085973521 0)
(-0.04249132633 0.1947123208 -8.847658859e-22)
(-0.04796100089 0.2258136518 -5.410660806e-22)
(-0.03920488257 0.2282055771 4.543475375e-22)
(-0.0187914772 0.2182242728 -1.710236137e-24)
(0.007648055568 0.2028143237 -4.560608624e-23)
(0.03666151781 0.1847562137 5.696021395e-22)
(0.0658103136 0.1647084794 -2.766578658e-23)
(0.09325125931 0.1423122387 -2.069538918e-22)
(0.117369611 0.1166294558 3.141900643e-23)
(0.1365277349 0.08641542677 -3.4256189e-23)
(0.1489500134 0.0501819902 -3.690338067e-23)
(0.1525125106 0.006165001241 3.205437531e-22)
(0.1449235823 -0.04795567794 6.119257873e-22)
(0.1235046628 -0.11530051 -5.100900037e-22)
(0.08632600745 -0.2004158138 -1.615958174e-22)
(0.03198274016 -0.3067777606 1.531350943e-22)
(-0.02362705899 -0.4239807999 7.293808804e-23)
(-0.06492650141 -0.4871579644 1.913303573e-21)
(-0.02510004324 -0.3291518815 2.955005031e-21)
(-0.02004671913 0.1460735131 -4.389983846e-23)
(-0.06416512382 0.2112950994 4.417155262e-23)
(-0.05070571371 0.2177274664 1.000129748e-21)
(-0.01934735502 0.2014636607 -8.263165163e-24)
(0.02413509915 0.1809024573 0)
(0.07152875378 0.1606883447 4.363311888e-23)
(0.1190556606 0.1416455665 -2.273615585e-22)
(0.1644606627 0.1233156912 -9.026972809e-23)
(0.2062085307 0.104811007 3.680330534e-23)
(0.2429480723 0.08507238428 -1.701488259e-23)
(0.2732055944 0.06296386886 3.429671855e-23)
(0.2952400943 0.03726627062 -6.592195247e-23)
(0.3066853434 0.00653879956 -9.30330652e-23)
(0.3049639154 -0.03087410781 1.516967421e-22)
(0.2863855598 -0.07785992996 0)
(0.2470503845 -0.1399279793 1.505505028e-22)
(0.1810870238 -0.2266290402 2.559998545e-22)
(0.09604061824 -0.3443883473 0)
(-0.006699602356 -0.4552197982 -3.675650707e-21)
(-0.0192244072 -0.3777526257 -2.892633834e-21)
(-0.02591927286 0.2276836914 -9.514065023e-22)
(-0.03998286448 0.2238222112 -1.388925463e-22)
(0.03656094631 0.1810580407 -2.335438196e-22)
(0.1090481684 0.145104362 -1.193656834e-22)
(0.1817147298 0.1172423207 -4.295586299e-23)
(0.2490022916 0.09627671631 9.782278574e-23)
(0.3100248055 0.08002308937 -1.408443882e-22)
(0.3646105651 0.06656680574 1.297034819e-22)
(0.4126141036 0.05449129354 -8.619181719e-23)
(0.4536138842 0.04270931386 1.132162513e-25)
(0.4867774185 0.03032407151 1.52761591e-23)
(0.5107359081 0.01653059262 7.996610042e-23)
(0.5236521351 0.0005381873971 -1.811013611e-22)
(0.5231740034 -0.01863210606 -1.617069199e-22)
(0.5052280837 -0.04286347763 -4.26260958e-23)
(0.4658685132 -0.07633148904 0)
(0.3952674814 -0.1286086812 -1.846487874e-22)
(0.2916054718 -0.2208467366 8.148768651e-22)
(0.1197445208 -0.3525016227 1.631603248e-21)
(0.02670522218 -0.3775496502 2.17265645e-21)
(0.2142896963 0.1347449643 9.864835148e-22)
(0.2776318952 0.09870534765 0)
(0.4316600947 0.05810429433 -2.594214881e-22)
(0.5304752938 0.03846259941 -1.741579254e-22)
(0.6016959199 0.02623399352 0)
(0.6571179886 0.01831898441 -6.008541738e-23)
(0.7015182718 0.01313579398 6.377293591e-23)
(0.7376002765 0.009542009223 -1.799932012e-23)
(0.7669324083 0.006804479364 2.885625822e-23)
(0.7902062471 0.004464892224 2.314777998e-23)
(0.8074515198 0.002221573168 0)
(0.8182589062 -0.0001497570647 -2.872802556e-23)
(0.8216476745 -0.002723514733 0)
(0.8162380889 -0.005712417377 2.737923504e-23)
(0.7991327505 -0.009611235125 1.421583062e-23)
(0.7679985802 -0.01500251167 -5.799472506e-23)
(0.7106557166 -0.0250252654 -2.535665909e-22)
(0.6235184884 -0.04204293142 -6.918105779e-22)
(0.4230090927 -0.09182976086 0)
(0.270567445 -0.1524022204 -2.119484302e-21)
)


// ************************************************************************* //
