/*--------------------------------*- C++ -*----------------------------------*\
  =========                 |
  \\      /  F ield         | OpenFOAM: The Open Source CFD Toolbox
   \\    /   O peration     | Website:  https://openfoam.org
    \\  /    A nd           | Version:  13
     \\/     M anipulation  |
\*---------------------------------------------------------------------------*/
FoamFile
{
    format      ascii;
    class       volScalarField;
    location    "43";
    object      p;
}
// * * * * * * * * * * * * * * * * * * * * * * * * * * * * * * * * * * * * * //

dimensions      [0 2 -2 0 0 0 0];

internalField   nonuniform List<scalar> 
400
(
-1.314310784e-09
-0.0005294871894
-0.001175630812
-0.001676071765
-0.001911053538
-0.001831165085
-0.001411903999
-0.0006422730826
0.0004686769591
0.00187671695
0.003487418454
0.005149892532
0.006667755978
0.007830867307
0.008465714835
0.008491959537
0.007965730182
0.007093511336
0.006207788438
0.005654247792
0.0005366087591
-1.120775733e-05
-0.0005819143531
-0.0009817362558
-0.001158416114
-0.001085086664
-0.0007405470441
-0.0001096610322
0.0008079840914
0.001983276993
0.003342621733
0.004760856266
0.006068537739
0.007080324877
0.007640784345
0.007676578191
0.007234743614
0.006487693287
0.005697070941
0.005133936335
0.001208052463
0.0005226614911
-8.039199113e-05
-0.0004452704966
-0.0006067966985
-0.000572479588
-0.0003269314674
0.0001525410109
0.0008824960359
0.001855631587
0.00302229581
0.004278845338
0.005470711274
0.006417032009
0.006956084505
0.006999956873
0.006575333902
0.005822707483
0.004947413903
0.004213938207
0.001690489864
0.0008066606681
8.594264821e-05
-0.0003222644034
-0.0005314216198
-0.0005819030958
-0.0004618363665
-0.0001362305927
0.000433867575
0.001268327715
0.002342871141
0.003570007033
0.00479537707
0.005818833366
0.006442180246
0.006533457051
0.006081072828
0.00519851918
0.004071469991
0.003035957444
0.001728069978
0.0006436287439
-0.0002207596963
-0.0007164047667
-0.001023724828
-0.001208268795
-0.001255604685
-0.001112217567
-0.0007098380578
5.908650458e-06
0.001042692376
0.002333002778
0.00371957639
0.004969787835
0.005823840514
0.006072385656
0.005634892963
0.00458537435
0.003109695824
0.0016762895
0.001108700585
-0.0001544296101
-0.00116383699
-0.00177665169
-0.002229686333
-0.002605523329
-0.002880830622
-0.002977201096
-0.002789143479
-0.002217114706
-0.001208068308
0.0002050160733
0.001870902975
0.00352154326
0.004813137671
0.005416939919
0.005132997512
0.003957556051
0.002073880262
0.0001443776249
-0.0003458106342
-0.001755275679
-0.002902814148
-0.003659951103
-0.004310348609
-0.004947418365
-0.005534704073
-0.005964002448
-0.006084498255
-0.005737464315
-0.004802898263
-0.003255484837
-0.001212625064
0.001033919061
0.003041281247
0.004311272246
0.004447305293
0.003289416959
0.0009788537887
-0.001557886695
-0.002772387781
-0.004289570544
-0.005564305134
-0.006492308717
-0.007395896467
-0.008376366898
-0.009383649147
-0.01027801517
-0.01085688651
-0.01088753724
-0.01015688592
-0.008539743896
-0.006077212374
-0.003047297653
1.408496103e-05
0.002392058504
0.003388501068
0.002550643158
-0.0001262296631
-0.003382382726
-0.006254691408
-0.007836309893
-0.009221688814
-0.01034053439
-0.01154833302
-0.01295591081
-0.0145040121
-0.01602441074
-0.01726052778
-0.01789334071
-0.01758897465
-0.01607620758
-0.01325521317
-0.009320930047
-0.004856642103
-0.0008132582379
0.001692591959
0.001709516864
-0.001120959904
-0.005173340582
-0.01081343112
-0.01241195158
-0.01387870291
-0.01518614337
-0.01672327194
-0.01861847194
-0.02081328149
-0.02311938822
-0.02523008735
-0.02673484021
-0.02715798573
-0.02603804295
-0.02306348323
-0.01824442879
-0.01211076641
-0.005804161357
-0.0009459900635
0.0007539199433
-0.001763255504
-0.006580200484
-0.01640649992
-0.01796897581
-0.01946118241
-0.02090578004
-0.02273757903
-0.02511961247
-0.02800941471
-0.03121099268
-0.03437685247
-0.03700886326
-0.03848235137
-0.0381157013
-0.03533190268
-0.02983742984
-0.02195925119
-0.01288928146
-0.00474169064
-0.0002354160122
-0.001610956634
-0.00692593433
-0.02294816137
-0.0244110374
-0.02582305662
-0.02726579927
-0.02925507418
-0.03201834694
-0.03554769716
-0.03965162131
-0.04395205392
-0.04787332233
-0.05065186387
-0.05139254233
-0.04918184159
-0.04337530478
-0.03392281698
-0.02183397274
-0.009544348271
-0.0009105266146
0.0001111858804
-0.005011510539
-0.0303588516
-0.03163062397
-0.03276858795
-0.03393387832
-0.03579833908
-0.03869914565
-0.04267981513
-0.04755768891
-0.05292679341
-0.05814091176
-0.06230914681
-0.06433161205
-0.06300577292
-0.0572664633
-0.04657332172
-0.0314982255
-0.01446558418
-0.000353570743
0.004746363937
0.001163416447
-0.03866746473
-0.03957446969
-0.0400855783
-0.04050209546
-0.04178584808
-0.04443923771
-0.04856076199
-0.05396230414
-0.06019468806
-0.06653368594
-0.07196708851
-0.07521343835
-0.07480658399
-0.06929523813
-0.0576138467
-0.0397095022
-0.01758734724
0.003276113989
0.01455918699
0.01475778639
-0.04821445794
-0.04834629779
-0.04757955895
-0.04651119542
-0.04658796696
-0.04851203496
-0.05240296902
-0.05802126395
-0.06483323972
-0.07200662193
-0.07839362048
-0.08253646287
-0.08273096157
-0.07719216063
-0.06437851982
-0.04356670661
-0.01600656757
0.01289908859
0.03299669416
0.04030875874
-0.05999871193
-0.05837400146
-0.05511745874
-0.05148711881
-0.04961160975
-0.0503209212
-0.05364630957
-0.05920932173
-0.06632406787
-0.07399940293
-0.08091639105
-0.08542085413
-0.0855686795
-0.07926563011
-0.06455675328
-0.04011753834
-0.006301012995
0.03227204602
0.06446752075
0.0832596307
-0.07626759033
-0.07072525692
-0.06266917947
-0.05498400687
-0.05039786059
-0.04952037433
-0.05207494906
-0.05741687166
-0.06462517899
-0.07249263886
-0.07948942959
-0.08373406917
-0.08301395579
-0.07489180812
-0.05697493947
-0.02735017302
0.01454970797
0.06547327337
0.1143701476
0.1501695483
-0.1041758337
-0.08794444691
-0.06999141527
-0.05627683184
-0.04837760495
-0.04578305575
-0.04758701023
-0.05272486368
-0.05995396403
-0.06781509226
-0.07456040202
-0.07808146423
-0.07588981933
-0.06514369528
-0.04285421483
-0.006202144636
0.04675572447
0.1153212861
0.1914769184
0.2582856013
-0.1759795134
-0.1148928753
-0.07361320467
-0.05189107533
-0.04118203024
-0.03757606842
-0.03928604225
-0.04473725983
-0.05231986721
-0.06036306184
-0.06698255039
-0.06992778289
-0.06652036494
-0.0535825529
-0.02738715489
0.0164043254
0.08273239146
0.1773763264
0.3054224658
0.4526829589
-0.3558504105
-0.1552568538
-0.07043382237
-0.04278232184
-0.03135052246
-0.0276030217
-0.02978237571
-0.03596605879
-0.0442123844
-0.05272133966
-0.05957979403
-0.06252692219
-0.05883493072
-0.04517312723
-0.01724847868
0.03080997525
0.1084217675
0.2333564716
0.4348031442
0.7358694451
)
;

boundaryField
{
    movingWall
    {
        type            zeroGradient;
    }
    fixedWalls
    {
        type            zeroGradient;
    }
    frontAndBack
    {
        type            empty;
    }
}


// ************************************************************************* //
