/*--------------------------------*- C++ -*----------------------------------*\
  =========                 |
  \\      /  F ield         | OpenFOAM: The Open Source CFD Toolbox
   \\    /   O peration     | Website:  https://openfoam.org
    \\  /    A nd           | Version:  13
     \\/     M anipulation  |
\*---------------------------------------------------------------------------*/
FoamFile
{
    format      ascii;
    class       scalarField;
    location    "43";
    object      p_all;
}
// * * * * * * * * * * * * * * * * * * * * * * * * * * * * * * * * * * * * * //


400
(
3.21295574e-08
-0.0005474706406
-0.000889521796
-0.001017017638
-0.0009381663149
-0.0006853123436
-0.0002960199849
0.0001937154064
0.0007473569537
0.001324411408
0.001879240898
0.002358995116
0.002708286089
0.002874020955
0.002814666266
0.002512228617
0.001987180603
0.001296661232
0.0006377472831
4.185333035e-05
0.0005881883833
6.886484169e-06
-0.0003568539408
-0.000499184217
-0.0004685356041
-0.0002914783997
2.611286736e-06
0.0003844510427
0.0008226317029
0.001279879327
0.001716340762
0.002080859636
0.002323068345
0.002395607309
0.002264611384
0.001921310741
0.001392454111
0.0007430946383
0.0001454595435
-0.0005172286894
0.0009524468087
0.0003080336515
-9.322988483e-05
-0.0002395650111
-0.0002334428777
-0.000104943528
0.0001218885464
0.0004257655584
0.0007829609271
0.001161471659
0.001529496079
0.001832897564
0.00202174252
0.002047308335
0.001874464688
0.001493402599
0.0009281073757
0.0002351372853
-0.0004633203104
-0.001300294263
0.0009761546025
0.0002579869927
-0.0001922732095
-0.0003445793996
-0.0003538450862
-0.000256862275
-7.427295753e-05
0.0001813249774
0.000496389592
0.0008506903775
0.0012030369
0.001510510426
0.001712305931
0.001747887896
0.001568389833
0.001150432816
0.0005058462045
-0.0003186312892
-0.00123395374
-0.002384752148
0.0004804870201
-0.0002849955271
-0.0007639031382
-0.0009156132181
-0.0009366466238
-0.0008682258001
-0.0007253210817
-0.0005083877854
-0.0002171443183
0.0001391631847
0.0005301040003
0.0009074054514
0.001199840084
0.001326518733
0.001211027608
0.0008001755431
7.992003459e-05
-0.0009176754069
-0.002127653814
-0.00365615188
-0.0006863604417
-0.001467146433
-0.001956193235
-0.002107248785
-0.002150032697
-0.002126689356
-0.002042313738
-0.001879694519
-0.001617579994
-0.001245543616
-0.0007791236566
-0.0002628606156
0.0002206206616
0.0005614869028
0.0006378263092
0.000341509451
-0.000393056339
-0.001564094684
-0.003134877638
-0.005142114168
-0.002661822499
-0.003423541093
-0.003915408143
-0.004080786118
-0.00417815451
-0.004247211077
-0.004278235702
-0.004229186969
-0.004047586425
-0.00368963125
-0.003140771227
-0.002426765186
-0.001633516552
-0.000903448662
-0.0004248455707
-0.0003987184378
-0.000988271474
-0.002260614659
-0.004232775493
-0.006828354749
-0.005555019813
-0.006269949093
-0.006768240704
-0.006982189344
-0.007195578452
-0.007443476932
-0.007697187222
-0.007882260347
-0.007902233428
-0.007660677218
-0.007087406163
-0.006159542497
-0.00494378799
-0.003604907378
-0.002413978848
-0.001714565563
-0.001843256233
-0.003015072706
-0.005368509263
-0.00866230509
-0.009435249692
-0.01008158357
-0.01059845566
-0.01091069907
-0.0113261031
-0.01187598789
-0.01251136776
-0.01311974967
-0.01354791815
-0.01362349457
-0.01318261714
-0.01212125643
-0.01042815551
-0.008256683858
-0.005956455692
-0.004062033868
-0.003190300433
-0.003843202633
-0.006426599745
-0.01049178904
-0.01431702572
-0.01487601395
-0.01542300347
-0.01588224915
-0.01659008822
-0.0175802212
-0.01878708512
-0.02005922391
-0.02117772122
-0.02187378402
-0.0218575667
-0.02087244843
-0.01877210265
-0.01562027144
-0.01179524128
-0.008037501879
-0.005360059526
-0.004760318094
-0.007181339311
-0.01197942123
-0.02015453515
-0.02060476358
-0.02117495391
-0.02179695819
-0.02285231286
-0.02439056977
-0.02633944151
-0.02851383432
-0.03062778532
-0.03230372903
-0.03309549166
-0.03254094196
-0.03028271785
-0.02617891378
-0.02052510575
-0.01420413229
-0.008691739275
-0.005726808049
-0.007219453907
-0.01246660146
-0.02685656056
-0.02716232244
-0.02770276229
-0.02842317884
-0.02978937658
-0.03188931241
-0.03465909888
-0.03788986657
-0.04123415911
-0.04420529191
-0.04618837122
-0.04647902211
-0.04446332256
-0.03966026928
-0.03212125344
-0.022698975
-0.01326677994
-0.006486138387
-0.005808829478
-0.01076542554
-0.03433491921
-0.03441833121
-0.03478967567
-0.03540476132
-0.03689207043
-0.03941021879
-0.04292026077
-0.04719789804
-0.05184029675
-0.0562586167
-0.05967997743
-0.06119114312
-0.05977976817
-0.05465601447
-0.04544129082
-0.03269993117
-0.01845330981
-0.006246116065
-0.00167415914
-0.004873793729
-0.0426100602
-0.04227963333
-0.04219585936
-0.04229618378
-0.04351392969
-0.04611662212
-0.0500998361
-0.05522060804
-0.06101529397
-0.06679640958
-0.07164035774
-0.07441325963
-0.0738328205
-0.0686751401
-0.05807220266
-0.042062075
-0.0224402838
-0.00325745075
0.007346843783
0.008341239962
-0.05201056485
-0.05076122041
-0.04967804886
-0.04857915124
-0.04892701772
-0.05112044587
-0.05517314263
-0.06079649331
-0.06743580437
-0.07429017495
-0.08028305537
-0.08407650992
-0.08413094263
-0.07883782854
-0.06684309064
-0.04752369854
-0.02212772629
0.005501537715
0.02471514065
0.0335271812
-0.06365616235
-0.06018946252
-0.05709761231
-0.05376466436
-0.05246580953
-0.05368048191
-0.05736533286
-0.06313853645
-0.07026301271
-0.07780147775
-0.08449316766
-0.08878637997
-0.08889869758
-0.08283997074
-0.06885105347
-0.04562107443
-0.01375175119
0.02441668219
0.0555394361
0.07735567688
-0.08018671715
-0.07107527744
-0.0641215391
-0.05716584607
-0.05343200893
-0.05321609947
-0.05625986542
-0.06191489935
-0.06926005136
-0.07711804252
-0.08401330541
-0.08815276004
-0.08748118886
-0.07965690501
-0.06247974929
-0.03405066041
0.005564731216
0.05859391057
0.1058229509
0.1480676589
-0.1105081051
-0.08585541367
-0.07160738515
-0.05897242448
-0.05191483381
-0.04988459005
-0.05210441149
-0.05751057815
-0.06486141194
-0.07271029781
-0.07934171596
-0.08271500974
-0.08052073133
-0.06988762982
-0.04823269222
-0.01272272483
0.03823605431
0.1071320231
0.1779785862
0.256476425
-0.1684382877
-0.09990957898
-0.07500967089
-0.05479929838
-0.04462044882
-0.04158699279
-0.04371963793
-0.04938358201
-0.05701924974
-0.06497282501
-0.07136369322
-0.07398196291
-0.07013075533
-0.05701422945
-0.03102882784
0.01192921521
0.07559940616
0.1664041743
0.276161953
0.437704216
-0.398429575
-0.1381007331
-0.07497183619
-0.04708984827
-0.03355092395
-0.03003174007
-0.03280396021
-0.03926678788
-0.04756058974
-0.05594114873
-0.06250216435
-0.06503122918
-0.06099646158
-0.04697025197
-0.01875704055
0.02993534259
0.106955599
0.2334271881
0.4198801431
0.7800233247
)


// ************************************************************************* //
