/*--------------------------------*- C++ -*----------------------------------*\
  =========                 |
  \\      /  F ield         | OpenFOAM: The Open Source CFD Toolbox
   \\    /   O peration     | Website:  https://openfoam.org
    \\  /    A nd           | Version:  13
     \\/     M anipulation  |
\*---------------------------------------------------------------------------*/
FoamFile
{
    format      ascii;
    class       surfaceScalarField;
    location    "43";
    object      phi;
}
// * * * * * * * * * * * * * * * * * * * * * * * * * * * * * * * * * * * * * //

dimensions      [0 3 -1 0 0 0 0];

internalField   nonuniform List<scalar> 
760
(
-1.321888163e-05
1.321852594e-05
-7.201781056e-05
5.879893635e-05
-0.0001620727214
9.00549549e-05
-0.0002652228626
0.0001031501387
-0.000368242589
0.0001030196009
-0.0004615045091
9.326178589e-05
-0.0005377501809
7.624570218e-05
-0.0005912422217
5.349227112e-05
-0.0006175093192
2.626737335e-05
-0.0006135892737
-3.919926773e-06
-0.0005784599544
-3.512941966e-05
-0.0005138428017
-6.461736022e-05
-0.0004246595662
-8.918338567e-05
-0.0003192818442
-0.0001053777301
-0.0002092254547
-0.0001100562985
-0.0001081386397
-0.000101086728
-2.992507442e-05
-7.821353511e-05
1.414924361e-05
-4.407430685e-05
2.190948676e-05
-7.760155046e-06
2.190962389e-05
-6.870335955e-05
8.192188895e-05
-0.0002457756319
0.0002358711576
-0.0004934733543
0.0003377526855
-0.0007722779925
0.000381954945
-0.001050409505
0.0003811512831
-0.001303006283
0.0003458585178
-0.00151060446
0.0002838435787
-0.001657872573
0.0002007600262
-0.001733200124
0.0001015947639
-0.001729305808
-7.814129152e-06
-0.001643831388
-0.0001206035901
-0.001481413938
-0.0002270346129
-0.001254381759
-0.0003162155296
-0.0009832948283
-0.0003764647542
-0.000696141626
-0.0003972096137
-0.0004257315182
-0.0003714968802
-0.0002049933608
-0.000298951648
-5.981240091e-05
-0.0001892551385
-4.922411405e-07
-6.708019635e-05
2.141752445e-05
-0.000122934171
0.0002048561035
-0.0004149723442
0.0005279092898
-0.000808668338
0.0007314485092
-0.001247165416
0.0008204519394
-0.00168466186
0.0008186478522
-0.002084430609
0.0007456275366
-0.002416966048
0.0006163792325
-0.002658576738
0.0004423707231
-0.002790992158
0.0002340100161
-0.002802414133
3.607668233e-06
-0.002687902621
-0.0002351151568
-0.002452961955
-0.0004619751949
-0.002114171923
-0.0006550054258
-0.001700374327
-0.0007902622864
-0.001251822388
-0.0008457616255
-0.0008167447514
-0.0008065746917
-0.0004446234255
-0.0006710731601
-0.000176232226
-0.0004576464365
-3.221226709e-05
-0.000211100077
-1.07946986e-05
-0.0001720783715
0.000376934519
-0.0005725607095
0.0009283917757
-0.001105967807
0.001264855556
-0.001698036613
0.00141252055
-0.002290597366
0.001411208427
-0.002837254786
0.00129228494
-0.003300217654
0.001079342251
-0.003648292417
0.0007904456655
-0.003856339353
0.0004420570128
-0.003905816625
5.308487139e-05
-0.003787748204
-0.0003531836795
-0.00350402528
-0.0007456981614
-0.003071272751
-0.001087757918
-0.002522630967
-0.001338904035
-0.001907996219
-0.001460396441
-0.001290905624
-0.001423665479
-0.0007407543542
-0.001221224668
-0.0003202710453
-0.0008781299021
-7.110228645e-05
-0.0004602688232
-8.189698083e-05
-0.0002170221829
0.0005939566213
-0.0007188332915
0.001430203024
-0.001385655796
0.001931678206
-0.002127123641
0.002153988426
-0.002874374364
0.002158459055
-0.003573195685
0.001991106133
-0.004178979747
0.001685126262
-0.004653584821
0.001265050793
-0.004964199111
0.0007526713926
-0.005084017882
0.0001729036963
-0.004995023801
-0.0004421777476
-0.004691189457
-0.001049532496
-0.004183518491
-0.001595428853
-0.003504390016
-0.002018032484
-0.002710450249
-0.002254336246
-0.001881578034
-0.002252537819
-0.001113233306
-0.001989569559
-0.0005008211843
-0.00149054214
-0.0001191421747
-0.0008419478425
-0.0002010391756
-0.0002573668029
0.0008513233332
-0.0008513399639
0.002024176105
-0.001642296902
0.0027226352
-0.002526557542
0.003038249173
-0.003426901451
0.003058803034
-0.004283389111
0.00284759378
-0.00504621519
0.002447952268
-0.005671018614
0.001889854141
-0.006116751994
0.001198404739
-0.006345982488
0.0004021342037
-0.006327843912
-0.0004603162665
-0.006042476729
-0.001334899587
-0.005488324099
-0.002149581378
-0.004689982236
-0.00281637426
-0.00370572774
-0.003238590707
-0.002631183478
-0.003327082102
-0.001594227036
-0.003026526052
-0.0007363872932
-0.002348381925
-0.0001821206769
-0.001396214469
-0.0003831598698
-0.0002911841203
0.001142507508
-0.0009641253614
0.002697117224
-0.00186416396
0.003622673714
-0.002878145908
0.004052231122
-0.003923464893
0.004104122087
-0.004937001914
0.003861130876
-0.00586588918
0.003376839552
-0.006661002464
0.002684967371
-0.007273440239
0.001810842429
-0.007653973949
0.000782667855
-0.007755806397
-0.0003584838017
-0.007539789128
-0.001550916757
-0.006984028074
-0.002705342288
-0.006095814764
-0.00370458743
-0.004925704481
-0.004408700892
-0.003579480074
-0.004673306457
-0.002220388342
-0.004385617762
-0.001050845722
-0.003517924536
-0.0002684677973
-0.002178592394
-0.000651627671
-0.0003159655609
0.001458473164
-0.001048737633
0.003429889304
-0.002034531885
0.004608467892
-0.003154904051
0.005172603216
-0.004325133441
0.005274351464
-0.005481849608
0.005017847089
-0.006571932461
0.00446692246
-0.007544121256
0.003657156168
-0.008343811545
0.002610532654
-0.008911130796
0.001349987019
-0.009182806687
-8.680795698e-05
-0.009097013259
-0.001636710154
-0.00860458472
-0.003197770732
-0.007684199439
-0.004624972595
-0.006364068749
-0.005728831486
-0.004746043641
-0.006291331502
-0.003022882393
-0.00610877897
-0.00146958137
-0.005071225538
-0.0003882445544
-0.003259929201
-0.001039872217
-0.0003291956175
0.001787668783
-0.001096443041
0.004197136805
-0.002135079729
0.005647104587
-0.003325368523
0.006362891969
-0.004583651785
0.00653263469
-0.005849373525
0.006283568838
-0.007072575115
0.005690124092
-0.00820382491
0.004788405987
-0.009187258505
0.003593966214
-0.00995689388
0.002119622306
-0.01043606975
0.0003923678239
-0.01054225008
-0.001530529879
-0.01019503533
-0.00354498548
-0.009334089492
-0.0054859184
-0.007946629283
-0.007116291654
-0.006105926968
-0.008132033785
-0.004012930364
-0.008201775553
-0.002014593036
-0.00706956285
-0.0005528022316
-0.004721719995
-0.001592674436
-0.0003297928972
0.00211746162
-0.001101701868
0.004969045804
-0.002151423403
0.006696826153
-0.003361078005
0.007572546577
-0.004650845783
0.007822402467
-0.005965957068
0.007598680142
-0.00726337956
0.006987546623
-0.008500566077
0.006025592532
-0.009627011916
0.004720412034
-0.01057860289
0.003071213206
-0.01127459549
0.001088360321
-0.01161814903
-0.00118697644
-0.01150162934
-0.003661505235
-0.01082052641
-0.006167021367
-0.009503001603
-0.008433816476
-0.007560609011
-0.01007442638
-0.005160873407
-0.01060151116
-0.002696115629
-0.009534320621
-0.0007741503519
-0.006643685262
-0.002366824778
-0.0003199349395
0.002437396532
-0.00106668673
0.00571579757
-0.002080423959
0.007710563376
-0.003246814706
0.008738937326
-0.004492308114
0.009067895894
-0.005770873495
0.008877245563
-0.007050316275
0.008266989456
-0.008300542262
0.00727581856
-0.009484302174
0.005904171952
-0.01054996269
0.004136873688
-0.01142562083
0.00196401839
-0.01201417235
-0.0005984249965
-0.01219379475
-0.003481882903
-0.01182096898
-0.006539847188
-0.01075537876
-0.009499406728
-0.008913750731
-0.01191605443
-0.006370857896
-0.013144404
-0.003498965223
-0.01240621329
-0.001063151396
-0.00907949908
-0.003429976169
-0.0003074093989
0.002744805956
-0.001006587434
0.00641497559
-0.001938354797
0.008642330696
-0.002991899001
0.009792481489
-0.004102813504
0.01017881039
-0.005237449005
0.0100118811
-0.006378627997
0.009408168511
-0.007514083748
0.008411274369
-0.008627331694
0.007017419933
-0.009689844102
0.005199386111
-0.01065314229
0.002927316578
-0.01143756777
0.0001860004691
-0.01192945614
-0.00298999455
-0.01196499044
-0.006504312905
-0.01134373897
-0.01012065821
-0.00986896782
-0.01339082559
-0.007460114275
-0.01555325754
-0.004363834586
-0.01550249297
-0.001425535642
-0.01201779801
-0.00485551181
-0.0003089282268
0.003053734215
-0.0009555673554
0.007061614747
-0.001768489995
0.00945525329
-0.002639390571
0.01066338199
-0.003518262092
0.01105768186
-0.00438972266
0.01088334168
-0.005256719221
0.01027516513
-0.006129514508
0.009284069724
-0.007017707075
0.00790561256
-0.007923326622
0.00610500571
-0.00883221321
0.003836203216
-0.009704214497
0.001058001802
-0.01045072632
-0.00224348269
-0.01092412002
-0.006030919175
-0.01089502846
-0.01014974976
-0.01006488813
-0.01422096592
-0.008157305526
-0.01746084014
-0.005167631658
-0.01849216684
-0.001854349001
-0.01533108067
-0.00670986081
-0.0003552700347
0.003409004264
-0.0009733330965
0.007679677862
-0.001646057385
0.01012797755
-0.002268710401
0.01128603492
-0.002816840079
0.01160581147
-0.003303693689
0.01137019527
-0.003759410068
0.01073088154
-0.004220924722
0.009745584437
-0.004726146881
0.008410834779
-0.005309762653
0.006688621538
-0.005996656587
0.004523097205
-0.006791798218
0.001853143488
-0.007660585528
-0.00137469533
-0.008503029324
-0.005188475342
-0.009113178139
-0.009539600923
-0.009142508072
-0.01419163598
-0.00812840067
-0.01847494754
-0.005711156581
-0.02090941093
-0.002318284787
-0.01872395246
-0.009028145595
-0.0005003770086
0.003909381286
-0.001151296425
0.008330597325
-0.001674820991
0.01065150211
-0.001981640326
0.01159285422
-0.002095672474
0.01171984356
-0.002075735673
0.01135025844
-0.001988477169
0.01064362303
-0.001901151259
0.009658258541
-0.001878927057
0.008388610595
-0.001985971035
0.006795665536
-0.002282466867
0.004819593058
-0.002818755644
0.002389432286
-0.003622152097
-0.0005712988565
-0.004668842783
-0.00414178464
-0.005834634866
-0.008373808832
-0.00680766366
-0.01321860718
-0.007016668795
-0.01826594241
-0.005716401017
-0.0222096787
-0.002739567086
-0.02170078638
-0.01176771268
-0.0008308853478
0.004740266676
-0.001604832816
0.009104544828
-0.001950979357
0.01099764865
-0.001839382797
0.01148125767
-0.001385434836
0.0112658956
-0.0007181316727
0.01068295526
4.821333039e-05
0.009877277994
0.0008164048169
0.008890067004
0.001495360769
0.007709654589
0.001998424307
0.006292601949
0.002238517691
0.004579499638
0.002128355064
0.00249959489
0.00158316022
-2.610402576e-05
0.0005450316554
-0.003103656084
-0.0009843145061
-0.006844462677
-0.002828401719
-0.01137451997
-0.004459125941
-0.01663521819
-0.004810489508
-0.02185831514
-0.002944290912
-0.02356698498
-0.01471200359
-0.001465682499
0.006205949245
-0.00237987662
0.01001873899
-0.00237344488
0.01099121689
-0.001603541898
0.01071135469
-0.0003496263157
0.01001198004
0.001163642697
0.009169686257
0.002771842204
0.008269078462
0.004349534324
0.007312374823
0.005791623925
0.006267564906
0.006998015147
0.005086210647
0.007865493539
0.003712021182
0.008282285573
0.002082802813
0.008123822502
0.0001323590213
0.007264497013
-0.002244330611
0.005585213272
-0.005165178947
0.003073873196
-0.008863179904
7.89720281e-05
-0.01364031703
-0.00244574732
-0.01933359579
-0.002601078002
-0.02341165429
-0.01731308159
-0.002365503985
0.008571453283
-0.002963808697
0.01061704374
-0.001922814031
0.009950222219
8.111539086e-05
0.008707425231
0.002534887278
0.007558208136
0.00514025596
0.006564317568
0.007719753883
0.005689580525
0.01015462186
0.004877506818
0.01234957385
0.004072612879
0.01421200264
0.00322378182
0.01564054053
0.002283483263
0.01651758928
0.001205754047
0.01669709994
-4.715164936e-05
0.01602712648
-0.001574357161
0.01430509024
-0.003443142709
0.0113328309
-0.005890920567
0.007055613808
-0.009363099934
0.002201623685
-0.01447960567
-0.001027320534
-0.02018271007
-0.01834040212
-0.002150342894
0.01072179616
-7.199467232e-05
0.008538695521
0.003741898418
0.00613632914
0.007719772829
0.004729550821
0.01156187105
0.003716109926
0.01514101064
0.002985177997
0.0183988563
0.002431734894
0.0213015557
0.001974807449
0.02381243391
0.001561734707
0.02587973504
0.001156480717
0.0274305692
0.0007326491264
0.02836472838
0.0002715948895
0.02857561762
-0.00025804088
0.02788766538
-0.0008864049045
0.02609934138
-0.001654818704
0.02290826573
-0.002699844912
0.01790696688
-0.004361801087
0.01076690817
-0.007339546962
0.002912180377
-0.01232798228
-0.01542822175
0.0107217961
0.01926049157
0.02539682069
0.03012637153
0.03384248149
0.03682765954
0.03925939448
0.04123420196
0.04279593669
0.04395241743
0.04468506657
0.04495666147
0.04469862059
0.04381221569
0.04215739699
0.03945755208
0.03509575099
0.02775620403
0.01542822175
)
;

boundaryField
{
    movingWall
    {
        type            calculated;
        value           uniform 0;
    }
    fixedWalls
    {
        type            calculated;
        value           uniform 0;
    }
    frontAndBack
    {
        type            empty;
    }
}


// ************************************************************************* //
