/*--------------------------------*- C++ -*----------------------------------*\
  =========                 |
  \\      /  F ield         | OpenFOAM: The Open Source CFD Toolbox
   \\    /   O peration     | Website:  https://openfoam.org
    \\  /    A nd           | Version:  13
     \\/     M anipulation  |
\*---------------------------------------------------------------------------*/
FoamFile
{
    format      ascii;
    class       surfaceScalarField;
    location    "43";
    object      phi_0;
}
// * * * * * * * * * * * * * * * * * * * * * * * * * * * * * * * * * * * * * //

dimensions      [0 3 -1 0 0 0 0];

internalField   nonuniform List<scalar> 
760
(
-1.321888275e-05
1.321852769e-05
-7.201780231e-05
5.879892053e-05
-0.0001620727378
9.005493966e-05
-0.0002652229169
0.0001031501766
-0.0003682426164
0.000103019686
-0.0004615044583
9.326183336e-05
-0.0005377500816
7.624563543e-05
-0.0005912421595
5.34921081e-05
-0.0006175093507
2.626721926e-05
-0.0006135893711
-3.919972741e-06
-0.0005784600417
-3.512934491e-05
-0.0005138428268
-6.461723641e-05
-0.0004246595328
-8.91833037e-05
-0.0003192817901
-0.0001053777333
-0.0002092254049
-0.0001100563644
-0.000108138584
-0.0001010868028
-2.992499282e-05
-7.82135828e-05
1.414933829e-05
-4.407433151e-05
2.190954522e-05
-7.760207691e-06
2.190955695e-05
-6.870337854e-05
8.192190656e-05
-0.0002457756259
0.0002358711597
-0.0004934733174
0.0003377526348
-0.0007722779954
0.0003819548787
-0.001050409569
0.0003811512824
-0.001303006354
0.0003458586165
-0.001510604468
0.0002838437195
-0.001657872503
0.0002007601096
-0.001733200037
0.0001015947399
-0.001729305771
-7.814220711e-06
-0.001643831421
-0.0001206036671
-0.001481414011
-0.0002270346213
-0.00125438182
-0.0003162154793
-0.0009832948424
-0.000376464704
-0.0006961415828
-0.0003972096194
-0.0004257314252
-0.0003714969559
-0.0002049932367
-0.0002989517695
-5.98122908e-05
-0.0001892552739
-4.921596261e-07
-6.70803259e-05
2.141741537e-05
-0.0001229342035
0.0002048561151
-0.0004149723928
0.0005279093432
-0.0008086683192
0.000731448542
-0.00124716535
0.0008204519009
-0.001684661815
0.000818647762
-0.002084430632
0.0007456274653
-0.002416966119
0.0006163792353
-0.002658576789
0.0004423707898
-0.002790992144
0.0002340100854
-0.002802414082
3.607691473e-06
-0.002687902578
-0.0002351151776
-0.002452961963
-0.0004619752254
-0.002114171987
-0.000655005435
-0.001700374406
-0.0007902622734
-0.001251822421
-0.0008457616176
-0.0008167447042
-0.0008065747182
-0.000444623311
-0.0006710732304
-0.0001762321051
-0.000457646541
-3.221222622e-05
-0.0002111002005
-1.079480037e-05
-0.0001720783601
0.0003769344794
-0.0005725607787
0.0009283917791
-0.001105967864
0.00126485562
-0.001698036603
0.001412520618
-0.002290597301
0.001411208441
-0.002837254726
0.00129228489
-0.003300217652
0.00107934218
-0.003648292465
0.0007904456265
-0.003856339396
0.0004420570268
-0.00390581662
5.308491739e-05
-0.003787748171
-0.0003531836349
-0.003504025265
-0.0007456981313
-0.003071272793
-0.001087757897
-0.002522631055
-0.001338904007
-0.001907996292
-0.001460396402
-0.001290905624
-0.001423665443
-0.0007407542738
-0.001221224655
-0.0003202709422
-0.0008781299303
-7.110225079e-05
-0.0004602688889
-8.189704456e-05
-0.0002170221281
0.0005939565968
-0.0007188332972
0.001430202962
-0.001385655848
0.001931678185
-0.002127123689
0.002153988462
-0.002874374369
0.002158459114
-0.00357319565
0.001991106163
-0.004178979708
0.001685126239
-0.004653584809
0.001265050735
-0.004964199117
0.0007526713429
-0.005084017878
0.0001729036826
-0.004995023784
-0.0004421777258
-0.004691189451
-0.001049532454
-0.004183518527
-0.001595428803
-0.003504390094
-0.002018032427
-0.002710450327
-0.002254336177
-0.001881578061
-0.002252537742
-0.001113233268
-0.001989569494
-0.0005008211206
-0.00149054211
-0.0001191421497
-0.000841947852
-0.0002010391939
-0.0002573667862
0.0008513233719
-0.0008513399265
0.002024176087
-0.001642296893
0.002722635153
-0.002526557566
0.003038249143
-0.003426901488
0.003058803045
-0.004283389135
0.002847593816
-0.00504621519
0.002447952293
-0.005671018592
0.001889854133
-0.006116751959
0.001198404702
-0.006345982443
0.0004021341613
-0.006327843871
-0.0004603162924
-0.006042476715
-0.001334899588
-0.005488324128
-0.002149581356
-0.004689982301
-0.002816374218
-0.00370572781
-0.003238590647
-0.002631183518
-0.003327082032
-0.001594227035
-0.003026525986
-0.0007363872711
-0.002348381879
-0.0001821206656
-0.001396214449
-0.0003831598601
-0.0002911841621
0.001142507541
-0.0009641253558
0.002697117261
-0.001864163931
0.003622673714
-0.002878145889
0.004052231096
-0.003923464902
0.004104122064
-0.00493700195
0.003861130876
-0.005865889218
0.003376839572
-0.006661002476
0.002684967388
-0.007273440209
0.001810842422
-0.007653973884
0.000782667821
-0.007755806326
-0.000358483852
-0.007539789087
-0.001550916807
-0.00698402808
-0.002705342323
-0.00609581481
-0.003704587443
-0.004925704539
-0.004408700881
-0.003579480118
-0.004673306428
-0.002220388363
-0.004385617726
-0.001050845727
-0.003517924505
-0.0002684677956
-0.002178592371
-0.0006516276545
-0.0003159655979
0.001458473147
-0.001048737667
0.003429889327
-0.002034531885
0.00460846792
-0.003154904028
0.005172603227
-0.004325133425
0.005274351458
-0.005481849622
0.005017847083
-0.006571932503
0.004466922467
-0.007544121295
0.003657156184
-0.008343811547
0.002610532663
-0.00891113075
0.001349987004
-0.009182806615
-8.680800124e-05
-0.009097013199
-0.00163671022
-0.008604584699
-0.003197770802
-0.007684199458
-0.004624972652
-0.006364068787
-0.005728831521
-0.004746043676
-0.006291331515
-0.003022882417
-0.006108778968
-0.001469581381
-0.005071225528
-0.0003882445557
-0.003259929188
-0.001039872206
-0.0003291956113
0.001787668753
-0.001096443069
0.004197136789
-0.002135079749
0.005647104595
-0.003325368518
0.006362891987
-0.004583651768
0.006532634706
-0.005849373525
0.006283568849
-0.007072575147
0.005690124105
-0.008203824958
0.004788406005
-0.009187258536
0.003593966233
-0.009956893869
0.002119622315
-0.01043606971
0.0003923678092
-0.01054225002
-0.00153052992
-0.01019503529
-0.003544985536
-0.009334089484
-0.005485918457
-0.007946629294
-0.0071162917
-0.006105926985
-0.008132033813
-0.004012930377
-0.008201775565
-0.002014593043
-0.007069562852
-0.0005528022319
-0.004721719992
-0.001592674433
-0.0003297928749
0.002117461616
-0.001101701869
0.004969045783
-0.002151423412
0.006696826135
-0.003361078003
0.007572546573
-0.004650845771
0.007822402475
-0.005965957067
0.007598680158
-0.007263379585
0.006987546644
-0.008500566125
0.00602559256
-0.009627011961
0.004720412069
-0.01057860291
0.003071213242
-0.01127459547
0.001088360347
-0.01161814899
-0.00118697643
-0.0115016293
-0.003661505244
-0.01082052639
-0.006167021387
-0.009503001595
-0.008433816498
-0.007560609011
-0.0100744264
-0.005160873407
-0.01060151117
-0.002696115629
-0.009534320625
-0.0007741503511
-0.006643685263
-0.00236682478
-0.0003199349367
0.002437396549
-0.001066686726
0.005715797568
-0.002080423954
0.007710563355
-0.003246814691
0.008738937301
-0.004492308095
0.009067895879
-0.005770873487
0.008877245565
-0.007050316292
0.008266989472
-0.008300542301
0.007275818588
-0.009484302218
0.005904171993
-0.01054996272
0.00413687374
-0.01142562084
0.001964018444
-0.01201417234
-0.0005984249499
-0.01219379473
-0.00348188287
-0.01182096896
-0.00653984717
-0.01075537875
-0.009499406721
-0.008913750723
-0.01191605443
-0.00637085789
-0.013144404
-0.00349896522
-0.01240621329
-0.001063151395
-0.009079499082
-0.003429976172
-0.0003074094161
0.002744805968
-0.00100658745
0.006414975602
-0.001938354796
0.008642330688
-0.002991898975
0.009792481464
-0.004102813467
0.01017881036
-0.00523744898
0.01001188109
-0.006378627998
0.009408168509
-0.007514083772
0.008411274383
-0.008627331726
0.007017419961
-0.009689844129
0.005199386151
-0.01065314231
0.002927316625
-0.01143756777
0.0001860005145
-0.01192945614
-0.002989994509
-0.01196499043
-0.006504312875
-0.01134373897
-0.01012065819
-0.009868967815
-0.01339082558
-0.00746011427
-0.01555325754
-0.004363834582
-0.01550249298
-0.001425535642
-0.01201779802
-0.004855511812
-0.0003089282449
0.003053734218
-0.0009555673927
0.007061614758
-0.001768490012
0.009455253294
-0.002639390549
0.01066338198
-0.003518262044
0.01105768184
-0.004389722617
0.01088334166
-0.005256719204
0.01027516511
-0.006129514515
0.00928406971
-0.007017707093
0.007905612556
-0.00792332664
0.006105005715
-0.008832213224
0.003836203227
-0.009704214509
0.001058001816
-0.01045072633
-0.002243482676
-0.01092412003
-0.006030919163
-0.01089502846
-0.01014974975
-0.01006488813
-0.01422096591
-0.008157305525
-0.01746084014
-0.005167631656
-0.01849216684
-0.001854349001
-0.01533108067
-0.006709860811
-0.0003552700447
0.003409004267
-0.0009733331402
0.007679677866
-0.001646057417
0.01012797756
-0.002268710395
0.01128603493
-0.002816840037
0.01160581146
-0.003303693642
0.01137019525
-0.003759410039
0.01073088151
-0.004220924717
0.009745584396
-0.004726146888
0.00841083474
-0.005309762663
0.006688621506
-0.005996656597
0.00452309718
-0.006791798229
0.001853143468
-0.007660585542
-0.001374695345
-0.008503029338
-0.005188475353
-0.00911317815
-0.009539600929
-0.009142508078
-0.01419163598
-0.008128400672
-0.01847494755
-0.00571115658
-0.02090941093
-0.002318284787
-0.01872395246
-0.009028145596
-0.0005003770188
0.003909381294
-0.001151296464
0.008330597324
-0.001674821022
0.01065150211
-0.001981640333
0.01159285423
-0.002095672455
0.01171984357
-0.002075735644
0.01135025843
-0.001988477147
0.010643623
-0.001901151251
0.009658258496
-0.001878927057
0.008388610545
-0.001985971037
0.006795665489
-0.00228246687
0.00481959302
-0.002818755648
0.002389432256
-0.003622152104
-0.0005712988786
-0.004668842792
-0.004141784655
-0.005834634874
-0.008373808842
-0.006807663665
-0.01321860718
-0.007016668796
-0.01826594241
-0.005716401016
-0.0222096787
-0.002739567085
-0.02170078638
-0.01176771268
-0.0008308853687
0.004740266677
-0.001604832853
0.009104544823
-0.001950979377
0.01099764864
-0.001839382804
0.01148125767
-0.001385434836
0.01126589561
-0.0007181316707
0.01068295527
4.821333139e-05
0.009877277995
0.0008164048176
0.008890066994
0.001495360772
0.007709654573
0.001998424313
0.006292601931
0.002238517699
0.004579499622
0.00212835507
0.002499594879
0.001583160222
-2.610403244e-05
0.0005450316541
-0.003103656087
-0.0009843145082
-0.006844462678
-0.00282840172
-0.01137451997
-0.00445912594
-0.01663521819
-0.004810489507
-0.02185831513
-0.00294429091
-0.02356698498
-0.01471200359
-0.001465682526
0.006205949222
-0.002379876659
0.01001873897
-0.002373444893
0.01099121689
-0.001603541896
0.01071135469
-0.0003496263154
0.01001198005
0.00116364269
0.009169686271
0.002771842193
0.008269078484
0.004349534315
0.007312374851
0.005791623926
0.006267564935
0.006998015156
0.005086210674
0.007865493551
0.003712021206
0.008282285583
0.002082802832
0.008123822508
0.0001323590349
0.007264497014
-0.002244330599
0.005585213272
-0.005165178938
0.003073873196
-0.008863179897
7.89720284e-05
-0.01364031702
-0.002445747319
-0.01933359579
-0.002601078002
-0.02341165429
-0.01731308159
-0.002365504001
0.008571453238
-0.002963808725
0.01061704371
-0.001922814042
0.009950222222
8.111540024e-05
0.008707425253
0.00253488729
0.007558208165
0.005140255963
0.006564317601
0.007719753877
0.005689580563
0.01015462185
0.00487750686
0.01234957385
0.004072612923
0.01421200264
0.003223781861
0.01564054054
0.002283483299
0.01651758928
0.001205754076
0.01669709994
-4.715163051e-05
0.01602712648
-0.001574357145
0.01430509024
-0.003443142698
0.0113328309
-0.005890920559
0.007055613807
-0.009363099929
0.002201623686
-0.01447960567
-0.001027320534
-0.02018271007
-0.01834040212
-0.002150342888
0.01072179613
-7.199466046e-05
0.00853869549
0.003741898428
0.006136329129
0.007719772849
0.004729550833
0.01156187107
0.00371610995
0.01514101065
0.002985178022
0.0183988563
0.002431734917
0.0213015557
0.001974807469
0.0238124339
0.001561734725
0.02587973503
0.001156480732
0.0274305692
0.0007326491386
0.02836472837
0.0002715948984
0.02857561762
-0.0002580408741
0.02788766537
-0.0008864049006
0.02609934137
-0.001654818701
0.02290826572
-0.00269984491
0.01790696688
-0.004361801085
0.01076690817
-0.00733954696
0.002912180377
-0.01232798228
-0.01542822175
0.01072179612
0.0192604916
0.02539682072
0.03012637156
0.03384248152
0.03682765955
0.03925939448
0.04123420196
0.04279593669
0.04395241742
0.04468506656
0.04495666146
0.04469862059
0.04381221568
0.04215739698
0.03945755207
0.03509575098
0.02775620402
0.01542822175
)
;

boundaryField
{
    movingWall
    {
        type            calculated;
        value           uniform 0;
    }
    fixedWalls
    {
        type            calculated;
        value           uniform 0;
    }
    frontAndBack
    {
        type            empty;
    }
}


// ************************************************************************* //
