/*--------------------------------*- C++ -*----------------------------------*\
  =========                 |
  \\      /  F ield         | OpenFOAM: The Open Source CFD Toolbox
   \\    /   O peration     | Website:  https://openfoam.org
    \\  /    A nd           | Version:  13
     \\/     M anipulation  |
\*---------------------------------------------------------------------------*/
FoamFile
{
    format      ascii;
    class       volVectorField;
    location    "43";
    object      U_0;
}
// * * * * * * * * * * * * * * * * * * * * * * * * * * * * * * * * * * * * * //

dimensions      [0 1 -1 0 0 0 0];

internalField   nonuniform List<vector> 
400
(
(1.100616015e-05 -3.783167676e-05 0)
(-0.0006660950059 0.0004130428501 -1.551297109e-23)
(-0.002185374279 0.000920393727 0)
(-0.00404783248 0.001312780819 0)
(-0.005971868468 0.001535065627 6.845766062e-25)
(-0.007762784039 0.001569847993 4.151012253e-24)
(-0.009284546116 0.00142356419 -7.373718996e-24)
(-0.0104359418 0.001119724114 7.530402317e-24)
(-0.01113681413 0.0006960832718 -2.09540913e-25)
(-0.01132711103 0.0002030778914 -3.994671303e-24)
(-0.01097177245 -0.0003002336742 5.803623158e-24)
(-0.01007232814 -0.0007475166766 -5.929534451e-23)
(-0.008679880473 -0.001075562886 -6.552658149e-23)
(-0.006902853168 -0.001233044283 -7.784262669e-23)
(-0.004910737844 -0.001192638176 4.57357073e-24)
(-0.002927231435 -0.0009619199987 -4.137925822e-24)
(-0.001205298825 -0.0005912112676 -1.998755534e-22)
(-1.906863025e-05 -0.0001698825645 0)
(0.0005181533177 0.0001720860435 1.509685675e-25)
(0.0002227511218 0.0003059788511 -2.55419344e-24)
(-0.0002633626362 0.0008289702041 1.382979749e-25)
(-0.002703304965 0.003383842438 1.561094846e-23)
(-0.006907276838 0.005604501898 1.555345047e-25)
(-0.01195231973 0.007008207697 -8.495537124e-25)
(-0.01713504423 0.007553775832 1.16216292e-24)
(-0.02197535444 0.007294199744 1.306950422e-23)
(-0.02611076155 0.006321894901 1.387953449e-24)
(-0.02926564864 0.004754194289 -7.282144883e-24)
(-0.03122673153 0.002737152896 1.015248224e-23)
(-0.03184201073 0.0004524065299 4.510021208e-24)
(-0.0310276146 -0.001884144539 -6.318899113e-24)
(-0.02879316603 -0.004023029588 2.961545648e-24)
(-0.02527138339 -0.005708354481 3.895500003e-23)
(-0.02073194885 -0.006707409269 -1.954752885e-24)
(-0.01558962655 -0.006854139844 3.754450188e-24)
(-0.0103851341 -0.006097464286 -9.740880992e-23)
(-0.005730272133 -0.004546186905 9.637668271e-23)
(-0.002233366985 -0.002507419595 -3.961356994e-25)
(-0.0001817763103 -0.0005023726609 4.061263297e-25)
(8.343442955e-05 0.0006099256086 0)
(-0.000418823136 0.002935079994 -2.910415717e-25)
(-0.004647874454 0.008804015629 1.70207728e-23)
(-0.01137196073 0.0132404251 -8.284008307e-24)
(-0.01932729204 0.0157920425 -2.075430107e-25)
(-0.02747411811 0.01653000139 2.038893504e-25)
(-0.03511778887 0.01564441701 6.822960879e-27)
(-0.04171344833 0.01335997571 -1.22044957e-24)
(-0.04683571734 0.009919770722 -4.551391903e-25)
(-0.05014988968 0.00560243325 -1.063067277e-23)
(-0.05141231984 0.0007444207869 0)
(-0.05047793347 -0.004241780302 0)
(-0.04733706334 -0.008887187149 2.671019066e-23)
(-0.0421592792 -0.01268176978 2.813019492e-23)
(-0.03531437401 -0.01513605214 -1.646155649e-24)
(-0.02738996221 -0.01586189585 4.845830115e-23)
(-0.01917005856 -0.01467334188 9.419186032e-23)
(-0.01156090726 -0.0116936041 3.975600822e-23)
(-0.005465412218 -0.00745074358 4.141873379e-25)
(-0.001451100495 -0.002936044199 1.073706604e-25)
(-9.072812619e-05 0.000225876903 0)
(-0.0005024630509 0.006045350723 -4.248907385e-23)
(-0.006402739793 0.01637075616 -1.692301991e-23)
(-0.01553502451 0.02355933651 8.210858869e-24)
(-0.02627912137 0.02744162739 0)
(-0.03728746895 0.02832102338 0)
(-0.04769037626 0.02658772687 0)
(-0.05679663137 0.02263120431 -4.46792669e-26)
(-0.06405384101 0.01683609313 -2.136617289e-24)
(-0.06901081568 0.009622183471 0)
(-0.07130827959 0.001491049455 1.635420042e-24)
(-0.07070853625 -0.006936504492 2.802751353e-25)
(-0.06713039528 -0.01493018919 -2.810598982e-25)
(-0.06069905694 -0.02166728255 0)
(-0.05180750569 -0.02631605865 4.13327146e-23)
(-0.0411499166 -0.02816070975 -4.681543615e-23)
(-0.02971970184 -0.02677372313 -2.761891551e-23)
(-0.01873716655 -0.02221530579 -3.960746538e-23)
(-0.009488028645 -0.01521922242 7.795814847e-25)
(-0.002976880848 -0.007298195168 9.790360981e-23)
(-0.0002318804806 -0.0008661679663 0)
(-0.0005316133743 0.01009501687 4.26956873e-23)
(-0.007983593168 0.02595219693 4.785209297e-25)
(-0.01939687506 0.03642882949 -4.675917158e-25)
(-0.03282382512 0.04185520827 0)
(-0.04664689117 0.04289485371 7.782942236e-25)
(-0.05985229833 0.04020074202 -7.675028669e-25)
(-0.07163291563 0.03434741831 3.672279304e-23)
(-0.08132751411 0.02585664201 1.848179145e-23)
(-0.08836601201 0.01527298394 6.238785983e-24)
(-0.09225469635 0.003246146914 -1.637325327e-24)
(-0.09260379873 -0.009407833055 0)
(-0.08917555597 -0.02167478117 4.370625353e-25)
(-0.08195979325 -0.03236745178 1.009018514e-23)
(-0.07126885476 -0.04021250278 -4.3493033e-23)
(-0.05782018808 -0.04402046483 1.932888322e-24)
(-0.04278582928 -0.042948295 4.21719736e-23)
(-0.02775450297 -0.03683347048 -3.841634945e-25)
(-0.01455062314 -0.02652721064 0)
(-0.004859462757 -0.01408454544 5.436564341e-23)
(-0.0003641487171 -0.002846953361 -2.565078527e-22)
(-0.0005272213142 0.01499927771 9.841500801e-23)
(-0.009377925878 0.03739022459 -4.907755555e-25)
(-0.02288182851 0.05170223193 0)
(-0.03883043607 0.05894183289 0)
(-0.05538656875 0.06025574759 -8.732085957e-23)
(-0.07142876807 0.0566190118 -8.499066116e-23)
(-0.08606654319 0.04880168882 -4.067533116e-23)
(-0.09855086185 0.03743980612 -1.504357975e-23)
(-0.108194533 0.02315984034 -5.368832905e-24)
(-0.1143444747 0.006709679601 -8.174963085e-24)
(-0.1164046225 -0.01093292165 6.601073101e-24)
(-0.1138937415 -0.02848945097 8.826583963e-24)
(-0.1065486992 -0.04437046346 -1.892311647e-23)
(-0.09446804123 -0.05675333879 4.607233065e-24)
(-0.07826856924 -0.06378298789 0)
(-0.05922895418 -0.06393495543 -1.572855391e-23)
(-0.03933981867 -0.05653816389 -2.429330081e-26)
(-0.02114188788 -0.04235809204 0)
(-0.007318702739 -0.02398229465 -1.520648923e-22)
(-0.0005216165652 -0.005925545131 6.056271287e-22)
(-0.0004990820555 0.02064574562 -9.774452922e-23)
(-0.01052951006 0.05045438252 2.831981158e-22)
(-0.0258295754 0.06912511869 1.526860288e-22)
(-0.0440213843 0.07849258103 3.619273143e-24)
(-0.06310739305 0.08029476587 -7.319359152e-23)
(-0.08190405205 0.07588043046 9.043521171e-23)
(-0.09947763786 0.0662169078 -3.59020939e-24)
(-0.1150227387 0.05201695114 -1.729171313e-24)
(-0.127751919 0.03392358522 2.524162049e-24)
(-0.1368472612 0.01270233216 7.382597965e-24)
(-0.1414710534 -0.01058782313 -6.500823779e-24)
(-0.1408248193 -0.03446024387 -9.787995327e-24)
(-0.1342745979 -0.05692771767 -3.261734536e-23)
(-0.1215450249 -0.07553316309 -3.661423103e-23)
(-0.1029672663 -0.08754260666 5.645825372e-25)
(-0.07976369925 -0.09039209761 0)
(-0.05426682476 -0.08244513822 0)
(-0.02987160922 -0.06397736919 -2.906065836e-24)
(-0.01066285131 -0.03798794766 2.970515092e-24)
(-0.0007350935933 -0.01050089519 1.027871889e-22)
(-0.0004479162337 0.02687251148 0)
(-0.01134923223 0.06480757565 2.001978807e-22)
(-0.02801599732 0.08829617342 8.96204697e-23)
(-0.04799857447 0.100123496 0)
(-0.06920602131 0.1027076569 1.569882396e-22)
(-0.09044373344 0.09781578769 0)
(-0.1107831696 0.08661103154 -1.428388792e-22)
(-0.1294093778 0.06983950441 6.515562409e-24)
(-0.145477165 0.04808232249 0)
(-0.1580351829 0.02201755606 0)
(-0.1660133473 -0.007334439553 -1.374411042e-24)
(-0.1682671576 -0.03838839732 -9.316745928e-25)
(-0.1637064715 -0.06883975887 1.491977671e-22)
(-0.1515208778 -0.09558275814 -4.704637631e-23)
(-0.1315134568 -0.1148298666 -2.560963299e-24)
(-0.1045596085 -0.1225703419 1.53472668e-24)
(-0.07309349935 -0.1155517974 -1.558935902e-24)
(-0.04135021499 -0.09283115639 0)
(-0.0152523027 -0.05740767694 3.2038136e-24)
(-0.001044308978 -0.01714714513 -1.012914529e-21)
(-0.0003744664279 0.03346304539 0)
(-0.01175006062 0.07998918778 -1.128289667e-22)
(-0.02920707947 0.1086390951 -6.191150337e-22)
(-0.0503174509 0.1232234001 -3.755307522e-22)
(-0.07296317558 0.1269097046 0)
(-0.09598960345 0.1219255652 4.119457541e-22)
(-0.11852735 0.1096348654 1.260925368e-22)
(-0.1398146438 0.09078245947 -5.581839146e-24)
(-0.1590221569 0.06581393206 5.554212042e-24)
(-0.1751461023 0.0352088112 0)
(-0.1869560006 -0.000196747017 2.912133168e-23)
(-0.193017267 -0.03889754334 4.695841363e-24)
(-0.1917809936 -0.07843888543 -1.076808395e-22)
(-0.1817874457 -0.1151865382 8.004202913e-23)
(-0.1620570453 -0.1442599471 -2.419746606e-22)
(-0.1327062014 -0.1598548637 0)
(-0.09577888244 -0.1563112895 0)
(-0.05601633094 -0.1302981091 0)
(-0.02147859141 -0.08381135164 0)
(-0.001500384533 -0.02665516326 5.572118377e-22)
(-0.0002873900848 0.0401607776 0)
(-0.01169359636 0.09543611591 -3.493015677e-22)
(-0.02924438301 0.1294073636 8.932800265e-22)
(-0.05060947315 0.1469299177 3.617179834e-22)
(-0.07370082704 0.1519748683 0)
(-0.09745151212 0.1472757972 -3.862555308e-22)
(-0.1211069847 0.1344191959 -3.174430881e-23)
(-0.1440324797 0.1141393325 3.333105731e-22)
(-0.1655143247 0.08670006649 1.769475429e-22)
(-0.1846248533 0.05229123508 -4.060154148e-23)
(-0.2001325823 0.01141716195 1.656821726e-23)
(-0.2104622455 -0.03471424153 -8.265254054e-24)
(-0.213720854 -0.08376563627 3.371860204e-22)
(-0.207821551 -0.1318756352 0)
(-0.1908238546 -0.1732756143 2.420915633e-22)
(-0.1616335745 -0.2002593401 5.774780219e-24)
(-0.1211662696 -0.2040121716 -5.860899274e-24)
(-0.07384989826 -0.1772119962 1.548449156e-22)
(-0.02971786834 -0.1188642331 -5.435463612e-24)
(-0.00217954511 -0.04005398757 0)
(-0.0002117199875 0.04671640017 0)
(-0.01125001091 0.1105498134 0)
(-0.0281562446 0.1497355012 -5.022757484e-22)
(-0.04874479311 0.1701517613 -1.880998174e-23)
(-0.07100086655 0.1766257157 2.03837868e-23)
(-0.09399451522 0.1724526523 -2.014311177e-23)
(-0.1171434303 0.1594870998 -2.316883776e-23)
(-0.1400179507 0.1384805089 -3.029824245e-22)
(-0.1621328892 0.1095160718 6.698611213e-23)
(-0.1827959037 0.07245186964 4.513180272e-23)
(-0.2009835556 0.02734928836 -4.577723427e-23)
(-0.2152270263 -0.0250869777 0)
(-0.2235562213 -0.08298351373 -7.839692209e-23)
(-0.2234632199 -0.1427257334 0)
(-0.2120679435 -0.1981820885 -3.73956383e-22)
(-0.1867434553 -0.2400773702 5.244956783e-22)
(-0.1464438308 -0.256077342 0)
(-0.09394567752 -0.2331209512 -1.493995215e-22)
(-0.04022001002 -0.1639613665 1.937551802e-22)
(-0.003201100267 -0.05861063156 -3.411531339e-22)
(-0.0002015408674 0.05297585103 0)
(-0.01067261868 0.1248172394 9.182872357e-22)
(-0.02628446671 0.1687424589 -2.440686267e-23)
(-0.04501107809 0.1916455149 9.193342382e-22)
(-0.06494597507 0.1992921064 -2.512087098e-23)
(-0.08536628551 0.1956104329 2.838844507e-23)
(-0.1059305651 0.1827886854 -2.812930564e-23)
(-0.1264924189 0.1616583515 -1.660918207e-23)
(-0.1468996848 0.1321762302 -5.260230018e-22)
(-0.1668458157 0.0938964662 -8.906630217e-24)
(-0.1857303024 0.04640576271 9.660198743e-24)
(-0.2024781685 -0.0102378478 3.313078521e-22)
(-0.2154154613 -0.07499820376 -5.820741929e-22)
(-0.2220209717 -0.1450311844 0)
(-0.2188032106 -0.2146760625 8.887326874e-22)
(-0.2016257527 -0.2740016431 -4.940889258e-22)
(-0.1668639195 -0.3075811966 -1.57222394e-23)
(-0.1140220096 -0.295381192 0)
(-0.05288482027 -0.2195802584 -1.890185478e-22)
(-0.004749188174 -0.08377277964 3.360589091e-22)
(-0.0003641984699 0.05902317768 1.551010706e-23)
(-0.01049573934 0.1379881505 -8.764199837e-22)
(-0.02441389523 0.1856804107 -1.157059548e-21)
(-0.04026724414 0.2101384757 -8.628991101e-22)
(-0.05630729594 0.2182348919 0)
(-0.07214856531 0.214619028 3.513806017e-23)
(-0.08779221595 0.2018791967 -7.294867754e-23)
(-0.1034562789 0.1810005619 5.867885361e-23)
(-0.1193983872 0.1518997248 3.021367292e-22)
(-0.1357931547 0.1139150572 -1.128195914e-23)
(-0.1526082322 0.06621424956 0)
(-0.1694521378 0.008177203328 -3.603930676e-22)
(-0.1852760601 -0.06015987719 7.515670026e-22)
(-0.1980448522 -0.1372747015 8.831705936e-22)
(-0.2043546269 -0.2189261892 -5.296629033e-22)
(-0.1990977618 -0.2959712918 5.162691254e-22)
(-0.1760605334 -0.3514072594 1.078233604e-23)
(-0.1300890634 -0.3584150789 -1.095548655e-23)
(-0.06688803319 -0.2843276515 -8.215313643e-23)
(-0.00708331996 -0.1169964418 0)
(-0.0009095776249 0.06540041547 -1.911487234e-23)
(-0.01167591714 0.1502816413 -1.326965833e-21)
(-0.02388882046 0.2000659561 1.094237912e-21)
(-0.03601340381 0.2244216967 6.73493269e-22)
(-0.0465730869 0.2316588247 6.014634119e-22)
(-0.05577038435 0.2272393704 6.643959018e-22)
(-0.06411245666 0.2141774886 -4.458678244e-23)
(-0.07227561552 0.1936494391 -3.461337699e-22)
(-0.08096972857 0.1656028325 2.152162735e-22)
(-0.09087192236 0.129270736 0)
(-0.1025547446 0.08353082495 0)
(-0.1163622151 0.02720010726 2.655397282e-22)
(-0.1321589555 -0.04062006021 8.194326397e-23)
(-0.1489252315 -0.1200128309 -2.82162416e-22)
(-0.164128428 -0.208930069 -5.411272594e-23)
(-0.172787762 -0.3006992506 1.301951992e-22)
(-0.1670311307 -0.3793329101 -3.400505872e-22)
(-0.1365292441 -0.4136451969 -1.593840463e-23)
(-0.08018250151 -0.3538326203 8.204086326e-23)
(-0.01050762296 -0.1594130568 -6.032160486e-22)
(-0.002260498498 0.07348883506 0)
(-0.01580355663 0.1626521772 2.14587497e-21)
(-0.02665042576 0.2117904736 0)
(-0.0342233959 0.2333947269 -1.351808373e-21)
(-0.03759398466 0.2377766825 6.184053161e-23)
(-0.0379968521 0.2312553525 -6.193096521e-22)
(-0.03668265854 0.2171899014 -4.756285392e-22)
(-0.03489036288 0.1968934498 8.301256262e-22)
(-0.03378837863 0.1703342389 -1.885698286e-22)
(-0.03449876399 0.1367221082 0)
(-0.03811572685 0.09479673679 0)
(-0.04564992417 0.04304286634 2.410616797e-23)
(-0.05790804308 -0.02013781185 -6.007199298e-22)
(-0.07514598573 -0.0962065017 -4.309567595e-22)
(-0.09645175032 -0.1855556168 4.637863189e-22)
(-0.1183462621 -0.2853567767 -6.488736506e-22)
(-0.1332715387 -0.383838653 9.119946862e-23)
(-0.1265350991 -0.450435871 2.937325387e-23)
(-0.08899154099 -0.4198536372 5.66044477e-22)
(-0.01526917934 -0.2111719728 6.020793227e-22)
(-0.005180899617 0.08598045942 0)
(-0.02525550724 0.176629119 1.465579551e-22)
(-0.03483408001 0.220596155 -4.917145498e-23)
(-0.03640013877 0.2354859344 7.642932348e-22)
(-0.03018483034 0.2343406748 -7.005379722e-22)
(-0.01916579399 0.224160388 4.746481795e-23)
(-0.005615149732 0.2083525844 -1.018610068e-22)
(0.008569608385 0.1881241089 -3.389889084e-22)
(0.02179886229 0.1633911273 2.062823112e-22)
(0.03262781509 0.1333242737 0)
(0.0395845858 0.09664086239 0)
(0.04117013269 0.05174056502 -2.902667995e-22)
(0.03578483827 -0.003255397278 0)
(0.02198184682 -0.07058360791 -5.512187613e-22)
(-0.001264846089 -0.1525735502 -1.492376876e-23)
(-0.03310469886 -0.2505949842 2.559740997e-23)
(-0.06909235825 -0.3599341511 2.20314269e-22)
(-0.09227827011 -0.4575424522 4.788089793e-24)
(-0.08718089928 -0.469812941 -5.789413263e-22)
(-0.02103127151 -0.2698972293 0)
(-0.0111163156 0.1085974974 0)
(-0.04248901882 0.1947151673 -8.848479774e-22)
(-0.04795528947 0.2258195507 -5.411040439e-22)
(-0.03919535959 0.2282135552 4.543817512e-22)
(-0.01877830298 0.2182328132 -1.709983979e-24)
(0.007664313952 0.2028220352 -4.561050403e-23)
(0.03667993405 0.1847619767 5.696682894e-22)
(0.0658299859 0.1647118215 -2.766890899e-23)
(0.09327130889 0.142312818 -2.069781991e-22)
(0.1173891605 0.1166274942 3.142213913e-23)
(0.1365461684 0.08641143938 -3.425917534e-23)
(0.1489669263 0.05017669083 -3.690594497e-23)
(0.1525275776 0.006159167467 3.20563382e-22)
(0.1449367026 -0.04796126978 6.119606826e-22)
(0.1235159786 -0.1153052904 -5.101172115e-22)
(0.08633533385 -0.2004195645 -1.616058397e-22)
(0.03199089246 -0.3067806587 1.53130791e-22)
(-0.0236212319 -0.4239837141 7.2936532e-23)
(-0.06492413069 -0.4871612785 1.913291728e-21)
(-0.02509971707 -0.329154474 2.954991594e-21)
(-0.02004680486 0.1460727404 -4.390207857e-23)
(-0.06416406261 0.2112955854 4.417380608e-23)
(-0.05070230566 0.2177300479 1.000188696e-21)
(-0.0193409734 0.2014679986 -8.27057471e-24)
(0.0241446495 0.1809076181 0)
(0.07154122076 0.160693335 4.36372285e-23)
(0.1190703406 0.1416495495 -2.273852281e-22)
(0.164476733 0.1233181823 -9.027957939e-23)
(0.2062251155 0.1048117295 3.680734866e-23)
(0.2429643018 0.08507140104 -1.701655235e-23)
(0.2732207574 0.06296147702 3.429970842e-23)
(0.2952536104 0.03726293852 -6.592681742e-23)
(0.3066971056 0.006535068463 -9.303907165e-23)
(0.3049738309 -0.03087770021 1.51704425e-22)
(0.2863936246 -0.07786290948 0)
(0.2470568081 -0.1399300367 1.505611421e-22)
(0.1810922233 -0.2266299751 2.560014016e-22)
(0.09604450222 -0.3443894945 0)
(-0.006697616024 -0.4552210216 -3.675635019e-21)
(-0.01922408205 -0.3777537586 -2.892621062e-21)
(-0.02591951348 0.2276828801 -9.514204883e-22)
(-0.03998324642 0.2238216526 -1.388976574e-22)
(0.03656136907 0.1810585359 -2.335582178e-22)
(0.1090503048 0.1451059093 -1.193742476e-22)
(0.1817191198 0.1172445498 -4.295826875e-23)
(0.2490090738 0.09627907667 9.783182937e-23)
(0.3100336708 0.08002510446 -1.408592398e-22)
(0.3646209338 0.06656815357 1.297175494e-22)
(0.4126252498 0.05449178903 -8.620121609e-23)
(0.4536250302 0.04270894931 1.132190678e-25)
(0.4867878726 0.0303229842 1.527741904e-23)
(0.5107451367 0.01652901855 7.997205864e-23)
(0.5236597458 0.0005365142957 -1.811124049e-22)
(0.5231798015 -0.01863373257 -1.617146411e-22)
(0.5052323421 -0.04286478962 -4.262954696e-23)
(0.4658715082 -0.07633231188 0)
(0.3952696498 -0.1286089384 -1.846477574e-22)
(0.2916071047 -0.2208468097 8.148763613e-22)
(0.1197455105 -0.3525016902 1.631601614e-21)
(0.02670547257 -0.3775497979 2.172655929e-21)
(0.2142894469 0.1347447207 9.864989872e-22)
(0.2776311184 0.09870503565 0)
(0.4316592289 0.0581041484 -2.594321245e-22)
(0.5304749346 0.03846264967 -1.74166691e-22)
(0.6016965754 0.0262341913 0)
(0.6571198965 0.01831923488 -6.009093041e-23)
(0.7015213611 0.01313600855 6.378002437e-23)
(0.7376042509 0.009542126371 -1.800156705e-23)
(0.7669368424 0.006804463576 2.885974476e-23)
(0.7902106691 0.004464743816 2.315033396e-23)
(0.8074555015 0.002221319735 0)
(0.8182621359 -0.0001500751145 -2.873033193e-23)
(0.8216499718 -0.002723848418 0)
(0.8162394198 -0.005712668746 2.738151207e-23)
(0.7991333149 -0.009611382882 1.421692089e-23)
(0.7679986345 -0.01500255108 -5.799403566e-23)
(0.7106555754 -0.02502519953 -2.535661048e-22)
(0.623518398 -0.04204285406 -6.918101903e-22)
(0.423009102 -0.09182968078 0)
(0.2705674689 -0.1524021841 -2.119483793e-21)
)
;

boundaryField
{
    movingWall
    {
        type            calculated;
        value           uniform (1 0 0);
    }
    fixedWalls
    {
        type            calculated;
        value           uniform (0 0 0);
    }
    frontAndBack
    {
        type            empty;
    }
}


// ************************************************************************* //
