/*--------------------------------*- C++ -*----------------------------------*\
  =========                 |
  \\      /  F ield         | OpenFOAM: The Open Source CFD Toolbox
   \\    /   O peration     | Website:  https://openfoam.org
    \\  /    A nd           | Version:  13
     \\/     M anipulation  |
\*---------------------------------------------------------------------------*/
FoamFile
{
    format      ascii;
    class       vectorField;
    location    "43";
    object      U_all;
}
// * * * * * * * * * * * * * * * * * * * * * * * * * * * * * * * * * * * * * //


400
(
(1.100612511e-05 -3.783172745e-05 0)
(-0.0006660950441 0.0004130429683 -1.551295429e-23)
(-0.002185374132 0.0009203938624 0)
(-0.004047831908 0.001312780517 0)
(-0.005971867913 0.001535064919 6.845752233e-25)
(-0.007762784335 0.001569847585 4.150993902e-24)
(-0.00928454734 0.00142356474 -7.373698998e-24)
(-0.01043594304 0.001119725488 7.530424097e-24)
(-0.01113681431 0.0006960845823 -2.09540249e-25)
(-0.01132710993 0.0002030782904 -3.994665188e-24)
(-0.01097177087 -0.0003002343046 5.803618408e-24)
(-0.01007232712 -0.0007475177329 -5.929537187e-23)
(-0.008679880456 -0.001075563589 -6.552661541e-23)
(-0.006902853902 -0.001233044248 -7.784266535e-23)
(-0.004910738853 -0.001192637582 4.5735709e-24)
(-0.002927232581 -0.0009619193111 -4.137924948e-24)
(-0.001205300335 -0.0005912108263 -1.998755099e-22)
(-1.907049567e-05 -0.0001698823928 0)
(0.0005181517059 0.0001720862077 1.509694207e-25)
(0.0002227502958 0.0003059794567 -2.55427804e-24)
(-0.0002633625476 0.000828969996 1.382981222e-25)
(-0.00270330481 0.003383842537 1.561092446e-23)
(-0.006907277026 0.005604502484 1.555341701e-25)
(-0.01195231995 0.007008207977 -8.495577294e-25)
(-0.01713504381 0.007553775108 1.162167481e-24)
(-0.02197535354 0.007294198443 1.306945341e-23)
(-0.026110761 0.006321894218 1.387980543e-24)
(-0.02926564911 0.004754194973 -7.282170036e-24)
(-0.03122673273 0.002737154474 1.015251478e-23)
(-0.03184201172 0.0004524077342 4.51001183e-24)
(-0.03102761461 -0.001884144526 -6.318891888e-24)
(-0.02879316508 -0.004023030629 2.961573394e-24)
(-0.02527138213 -0.00570835566 3.895505834e-23)
(-0.02073194811 -0.006707409642 -1.954754386e-24)
(-0.01558962687 -0.006854139088 3.754452624e-24)
(-0.01038513561 -0.006097462765 -9.740880872e-23)
(-0.005730274571 -0.004546185219 9.637664532e-23)
(-0.002233369646 -0.002507418092 -3.961351408e-25)
(-0.000181777946 -0.0005023713031 4.061257413e-25)
(8.343367517e-05 0.0006099272731 0)
(-0.0004188229253 0.002935079738 -2.910415951e-25)
(-0.00464787384 0.008804015136 1.702074276e-23)
(-0.01137196039 0.01324042525 -8.283925566e-24)
(-0.01932729255 0.01579204342 -2.075436241e-25)
(-0.02747411893 0.0165300022 2.038899417e-25)
(-0.03511778914 0.01564441678 6.820563594e-27)
(-0.04171344773 0.01335997446 -1.220476872e-24)
(-0.04683571644 0.009919769415 -4.551384737e-25)
(-0.05014988937 0.00560243287 -1.063070684e-23)
(-0.05141232036 0.0007444213986 0)
(-0.05047793428 -0.004241779473 0)
(-0.04733706365 -0.00888718686 2.671016355e-23)
(-0.04215927851 -0.01268177018 2.813018393e-23)
(-0.03531437261 -0.01513605266 -1.646155155e-24)
(-0.02738996112 -0.01586189573 4.845828042e-23)
(-0.01917005883 -0.01467334075 9.419185842e-23)
(-0.01156090922 -0.01169360216 3.975593392e-23)
(-0.005465415158 -0.00745074125 4.141852742e-25)
(-0.001451102667 -0.002936041836 1.073716182e-25)
(-9.072908587e-05 0.000225879013 0)
(-0.0005024630616 0.006045350974 -4.248907269e-23)
(-0.006402739388 0.01637075566 -1.692298739e-23)
(-0.01553502357 0.02355933565 8.210774458e-24)
(-0.026279121 0.02744162712 0)
(-0.03728746948 0.02832102405 0)
(-0.04769037718 0.02658772794 0)
(-0.05679663183 0.02263120493 -4.467744364e-26)
(-0.06405384065 0.0168360929 -2.136639741e-24)
(-0.06901081496 0.009622182762 0)
(-0.07130827931 0.001491048891 1.635420956e-24)
(-0.0707085366 -0.006936504729 2.802754449e-25)
(-0.0671303957 -0.01493018926 -2.810602096e-25)
(-0.06069905665 -0.02166728275 0)
(-0.0518075044 -0.02631605907 4.133271008e-23)
(-0.04114991498 -0.02816071017 -4.681541591e-23)
(-0.02971970111 -0.02677372318 -2.761887899e-23)
(-0.01873716747 -0.02221530523 -3.960739008e-23)
(-0.009488030833 -0.01521922118 7.795810532e-25)
(-0.002976882752 -0.007298193405 9.790364061e-23)
(-0.0002318813449 -0.0008661662973 0)
(-0.0005316136859 0.01009501743 4.269568568e-23)
(-0.007983593469 0.02595219745 4.785229003e-25)
(-0.01939687463 0.03642882911 -4.675935938e-25)
(-0.03282382444 0.04185520735 0)
(-0.04664689083 0.04289485307 7.782925433e-25)
(-0.05985229857 0.0402007422 -7.675012341e-25)
(-0.07163291614 0.03434741917 3.672276106e-23)
(-0.08132751444 0.0258566429 1.848181222e-23)
(-0.08836601205 0.0152729843 6.238793249e-24)
(-0.09225469639 0.003246146653 -1.637326243e-24)
(-0.09260379898 -0.009407833665 0)
(-0.08917555619 -0.02167478189 4.370630859e-25)
(-0.0819597929 -0.03236745254 1.009020366e-23)
(-0.07126885357 -0.04021250369 -4.349302932e-23)
(-0.05782018642 -0.04402046594 1.932887719e-24)
(-0.04278582808 -0.04294829616 4.217192275e-23)
(-0.02775450296 -0.03683347131 -3.841624198e-25)
(-0.01455062421 -0.02652721076 0)
(-0.004859463898 -0.01408454479 5.436563165e-23)
(-0.0003641492273 -0.00284695257 -2.565078461e-22)
(-0.0005272214899 0.01499927758 9.841496051e-23)
(-0.00937792617 0.03739022529 -4.907748633e-25)
(-0.02288182877 0.05170223254 0)
(-0.03883043595 0.05894183284 0)
(-0.05538656834 0.06025574698 -8.732088808e-23)
(-0.07142876762 0.05661901123 -8.499066158e-23)
(-0.08606654295 0.04880168882 -4.067529717e-23)
(-0.09855086195 0.03743980674 -1.504358121e-23)
(-0.1081945335 0.02315984116 -5.368839751e-24)
(-0.1143444754 0.00670968014 -8.174965144e-24)
(-0.1164046233 -0.0109329216 6.601074767e-24)
(-0.113893742 -0.02848945138 8.82658206e-24)
(-0.106548699 -0.04437046419 -1.89231195e-23)
(-0.09446804024 -0.0567533398 4.607193414e-24)
(-0.07826856776 -0.06378298921 0)
(-0.05922895288 -0.06393495694 -1.572853849e-23)
(-0.03933981807 -0.05653816526 -2.429349941e-26)
(-0.021141888 -0.04235809287 0)
(-0.007318703117 -0.02398229482 -1.520649121e-22)
(-0.0005216167304 -0.005925545081 6.05627124e-22)
(-0.0004990818556 0.02064574498 -9.774448244e-23)
(-0.01052950975 0.05045438235 2.831980672e-22)
(-0.02582957558 0.06912511911 1.526859999e-22)
(-0.04402138462 0.07849258153 3.619273889e-24)
(-0.06310739314 0.08029476598 -7.319357877e-23)
(-0.08190405171 0.07588043013 9.043521136e-23)
(-0.09947763723 0.0662169074 -3.590209632e-24)
(-0.1150227382 0.05201695109 -1.729171105e-24)
(-0.1277519191 0.03392358566 2.524161835e-24)
(-0.1368472621 0.01270233291 7.382600037e-24)
(-0.1414710546 -0.01058782237 -6.500825447e-24)
(-0.1408248204 -0.03446024335 -9.787993231e-24)
(-0.1342745983 -0.05692771752 -3.261735439e-23)
(-0.1215450244 -0.07553316336 -3.661417442e-23)
(-0.1029672652 -0.08754260735 5.645813272e-25)
(-0.07976369811 -0.0903920986 0)
(-0.05426682397 -0.08244513925 0)
(-0.02987160886 -0.06397736999 -2.906065819e-24)
(-0.01066285124 -0.03798794812 2.970515075e-24)
(-0.0007350935661 -0.01050089548 1.027871886e-22)
(-0.0004479159425 0.02687251134 0)
(-0.01134923169 0.06480757512 2.001979701e-22)
(-0.02801599705 0.08829617317 8.962049076e-23)
(-0.04799857464 0.1001234961 0)
(-0.06920602164 0.1027076571 1.569882546e-22)
(-0.09044373346 0.09781578771 0)
(-0.110783169 0.08661103127 -1.428388815e-22)
(-0.1294093771 0.0698395041 6.515562681e-24)
(-0.1454771646 0.04808232249 0)
(-0.1580351833 0.02201755658 0)
(-0.1660133484 -0.007334438575 -1.374411103e-24)
(-0.1682671588 -0.03838839613 -9.316745274e-25)
(-0.1637064724 -0.06883975776 1.491977602e-22)
(-0.1515208779 -0.09558275738 -4.704638687e-23)
(-0.1315134563 -0.1148298663 -2.560962551e-24)
(-0.1045596077 -0.122570342 1.534726017e-24)
(-0.07309349872 -0.1155517977 -1.558935217e-24)
(-0.04135021459 -0.09283115679 0)
(-0.01525230252 -0.0574076773 3.203813562e-24)
(-0.001044308912 -0.01714714542 -1.012914528e-21)
(-0.0003744663701 0.03346304583 0)
(-0.01175006041 0.07998918773 -1.128289795e-22)
(-0.0292070791 0.1086390948 -6.191150459e-22)
(-0.05031745083 0.1232233999 -3.755307528e-22)
(-0.07296317582 0.1269097045 0)
(-0.09598960361 0.1219255651 4.119457336e-22)
(-0.1185273497 0.1096348652 1.260925391e-22)
(-0.139814643 0.0907824591 -5.581839305e-24)
(-0.1590221562 0.06581393178 5.5542122e-24)
(-0.1751461021 0.03520881129 0)
(-0.1869560011 -0.0001967463905 2.912133285e-23)
(-0.1930172681 -0.03889754224 4.695841543e-24)
(-0.1917809945 -0.07843888412 -1.076808403e-22)
(-0.1817874462 -0.115186537 8.00420242e-23)
(-0.1620570454 -0.1442599463 -2.419746604e-22)
(-0.1327062012 -0.1598548633 0)
(-0.09577888216 -0.1563112894 0)
(-0.05601633073 -0.1302981092 0)
(-0.02147859131 -0.08381135179 0)
(-0.001500384504 -0.0266551634 5.572118345e-22)
(-0.0002873901938 0.04016077792 0)
(-0.01169359646 0.09543611625 -3.493015954e-22)
(-0.0292443829 0.1294073637 8.932800684e-22)
(-0.05060947314 0.1469299176 3.617179833e-22)
(-0.07370082725 0.1519748681 0)
(-0.09745151229 0.147275797 -3.862555113e-22)
(-0.1211069845 0.1344191955 -3.174430757e-23)
(-0.144032479 0.114139332 3.333105647e-22)
(-0.1655143238 0.08670006592 1.769475427e-22)
(-0.1846248527 0.05229123463 -4.060154213e-23)
(-0.2001325823 0.01141716183 1.656821718e-23)
(-0.210462246 -0.03471424122 -8.26525434e-24)
(-0.2137208548 -0.08376563561 3.371860285e-22)
(-0.2078215516 -0.1318756344 0)
(-0.1908238549 -0.1732756136 2.42091563e-22)
(-0.1616335747 -0.2002593396 5.774780179e-24)
(-0.1211662696 -0.2040121713 -5.860899233e-24)
(-0.07384989826 -0.1772119961 1.548449109e-22)
(-0.02971786834 -0.1188642331 -5.435463384e-24)
(-0.002179545114 -0.04005398758 0)
(-0.0002117200171 0.04671640005 0)
(-0.0112500109 0.1105498136 0)
(-0.0281562446 0.1497355016 -5.022757694e-22)
(-0.04874479328 0.1701517616 -1.880998229e-23)
(-0.07100086692 0.1766257158 2.038378671e-23)
(-0.09399451554 0.1724526521 -2.014311168e-23)
(-0.1171434302 0.1594870994 -2.316883699e-23)
(-0.1400179501 0.1384805083 -3.029824173e-22)
(-0.1621328884 0.1095160709 6.698610879e-23)
(-0.182795903 0.07245186872 4.513180347e-23)
(-0.2009835552 0.0273492875 -4.577723536e-23)
(-0.2152270263 -0.0250869783 0)
(-0.2235562216 -0.08298351401 -7.839692756e-23)
(-0.2234632202 -0.1427257334 0)
(-0.2120679439 -0.1981820884 -3.739563868e-22)
(-0.1867434555 -0.24007737 5.244956836e-22)
(-0.1464438309 -0.2560773419 0)
(-0.09394567763 -0.2331209511 -1.493995169e-22)
(-0.04022001006 -0.1639613665 1.937551765e-22)
(-0.00320110028 -0.05861063152 -3.411531303e-22)
(-0.0002015407459 0.05297585076 0)
(-0.01067261834 0.1248172393 9.182872292e-22)
(-0.02628446648 0.1687424592 -2.440686249e-23)
(-0.04501107829 0.1916455154 9.193342514e-22)
(-0.06494597567 0.1992921069 -2.512087143e-23)
(-0.08536628613 0.1956104331 2.838844484e-23)
(-0.1059305653 0.1827886852 -2.812930541e-23)
(-0.1264924187 0.1616583511 -1.660918173e-23)
(-0.1468996843 0.1321762295 -5.260229939e-22)
(-0.1668458152 0.09389646523 -8.906630102e-24)
(-0.185730302 0.04640576163 9.660198746e-24)
(-0.2024781684 -0.0102378488 3.31307851e-22)
(-0.2154154613 -0.07499820455 -5.82074195e-22)
(-0.2220209717 -0.1450311849 0)
(-0.2188032106 -0.2146760628 8.887326917e-22)
(-0.2016257528 -0.2740016432 -4.940889308e-22)
(-0.1668639196 -0.3075811966 -1.572223949e-23)
(-0.1140220097 -0.295381192 0)
(-0.05288482031 -0.2195802583 -1.890185442e-22)
(-0.004749188181 -0.0837727796 3.360589055e-22)
(-0.0003641983076 0.05902317752 1.551010707e-23)
(-0.01049573879 0.1379881503 -8.764199773e-22)
(-0.02441389465 0.1856804107 -1.157059557e-21)
(-0.04026724413 0.2101384761 -8.628991227e-22)
(-0.05630729658 0.2182348924 0)
(-0.07214856617 0.2146190285 3.51380603e-23)
(-0.08779221653 0.201879197 -7.294867746e-23)
(-0.103456279 0.181000562 5.867885315e-23)
(-0.1193983869 0.1518997245 3.021367244e-22)
(-0.1357931543 0.1139150567 -1.128195899e-23)
(-0.1526082319 0.06621424895 0)
(-0.1694521375 0.008177202673 -3.603930666e-22)
(-0.1852760599 -0.06015987777 7.515669999e-22)
(-0.198044852 -0.1372747019 8.831705902e-22)
(-0.2043546267 -0.2189261895 -5.296629041e-22)
(-0.1990977617 -0.2959712919 5.162691246e-22)
(-0.1760605334 -0.3514072595 1.078233602e-23)
(-0.1300890635 -0.3584150789 -1.095548653e-23)
(-0.06688803321 -0.2843276514 -8.215313841e-23)
(-0.007083319966 -0.1169964418 0)
(-0.0009095775067 0.06540041538 -1.911487231e-23)
(-0.01167591657 0.1502816411 -1.326965832e-21)
(-0.02388881969 0.2000659559 1.09423792e-21)
(-0.03601340357 0.2244216967 6.734932766e-22)
(-0.04657308736 0.231658825 6.014634163e-22)
(-0.05577038518 0.2272393709 6.643959049e-22)
(-0.06411245736 0.2141774892 -4.458678258e-23)
(-0.07227561583 0.1936494397 -3.46133771e-22)
(-0.08096972855 0.1656028329 2.152162735e-22)
(-0.0908719222 0.1292707363 0)
(-0.1025547444 0.08353082511 0)
(-0.1163622149 0.02720010733 2.655397265e-22)
(-0.1321589553 -0.0406200602 8.194326347e-23)
(-0.1489252313 -0.1200128309 -2.821624153e-22)
(-0.1641284278 -0.208930069 -5.411272571e-23)
(-0.1727877618 -0.3006992506 1.301951983e-22)
(-0.1670311306 -0.3793329101 -3.400505858e-22)
(-0.1365292441 -0.4136451969 -1.593840582e-23)
(-0.08018250152 -0.3538326203 8.204086524e-23)
(-0.01050762297 -0.1594130568 -6.032160506e-22)
(-0.002260498377 0.07348883492 0)
(-0.01580355609 0.1626521771 2.145874961e-21)
(-0.02665042504 0.2117904734 0)
(-0.03422339555 0.2333947267 -1.351808385e-21)
(-0.03759398481 0.2377766824 6.184053085e-23)
(-0.03799685256 0.2312553528 -6.193096551e-22)
(-0.03668265899 0.2171899021 -4.75628541e-22)
(-0.03489036313 0.1968934507 8.301256299e-22)
(-0.0337883787 0.1703342399 -1.885698285e-22)
(-0.03449876397 0.136722109 0)
(-0.03811572682 0.09479673749 0)
(-0.04564992413 0.04304286688 2.410616925e-23)
(-0.05790804298 -0.02013781145 -6.007199264e-22)
(-0.07514598558 -0.09620650142 -4.309567575e-22)
(-0.09645175016 -0.1855556166 4.637863179e-22)
(-0.118346262 -0.2853567766 -6.488736487e-22)
(-0.1332715386 -0.3838386529 9.119946844e-23)
(-0.1265350991 -0.4504358709 2.937325515e-23)
(-0.08899154101 -0.4198536371 5.660444782e-22)
(-0.01526917935 -0.2111719728 6.020793246e-22)
(-0.0051808994 0.08598045934 0)
(-0.02525550664 0.176629119 1.465579526e-22)
(-0.03483407943 0.220596155 -4.917145486e-23)
(-0.03640013851 0.2354859342 7.642932394e-22)
(-0.03018483029 0.2343406745 -7.005379762e-22)
(-0.01916579402 0.2241603879 4.74648181e-23)
(-0.005615149745 0.2083525847 -1.018610078e-22)
(0.008569608393 0.1881241095 -3.389889103e-22)
(0.02179886226 0.163391128 2.06282313e-22)
(0.032627815 0.1333242743 0)
(0.03958458565 0.09664086298 0)
(0.04117013254 0.05174056547 -2.902667991e-22)
(0.03578483818 -0.003255396952 0)
(0.02198184681 -0.0705836077 -5.512187614e-22)
(-0.001264846055 -0.1525735501 -1.492376788e-23)
(-0.03310469883 -0.2505949842 2.559740991e-23)
(-0.06909235825 -0.3599341511 2.203142678e-22)
(-0.09227827013 -0.4575424522 4.788089856e-24)
(-0.0871808993 -0.469812941 -5.789413276e-22)
(-0.02103127152 -0.2698972293 0)
(-0.0111163153 0.1085974976 0)
(-0.04248901815 0.1947151676 -8.848479686e-22)
(-0.04795528896 0.2258195508 -5.411040378e-22)
(-0.03919535947 0.2282135552 4.543817453e-22)
(-0.01877830299 0.218232813 -1.709983611e-24)
(0.007664314026 0.202822035 -4.561050402e-23)
(0.03667993424 0.1847619765 5.696682922e-22)
(0.0658299861 0.1647118213 -2.766890925e-23)
(0.09327130897 0.1423128179 -2.069782008e-22)
(0.1173891605 0.1166274941 3.142213938e-23)
(0.1365461682 0.0864114393 -3.425917554e-23)
(0.1489669261 0.05017669076 -3.690594509e-23)
(0.1525275774 0.006159167396 3.205633829e-22)
(0.1449367025 -0.04796126986 6.119606827e-22)
(0.1235159786 -0.1153052905 -5.101172114e-22)
(0.08633533385 -0.2004195645 -1.616058399e-22)
(0.03199089245 -0.3067806588 1.53130791e-22)
(-0.02362123192 -0.4239837141 7.293653203e-23)
(-0.06492413071 -0.4871612785 1.913291729e-21)
(-0.02509971707 -0.3291544741 2.954991594e-21)
(-0.02004680464 0.1460727412 -4.39020786e-23)
(-0.06416406214 0.2112955859 4.417380612e-23)
(-0.05070230531 0.2177300479 1.000188691e-21)
(-0.0193409734 0.2014679984 -8.270571803e-24)
(0.02414464929 0.1809076178 0)
(0.07154122063 0.1606933345 4.363722839e-23)
(0.1190703407 0.1416495489 -2.273852287e-22)
(0.1644767332 0.1233181815 -9.02795795e-23)
(0.2062251156 0.1048117288 3.680734873e-23)
(0.2429643018 0.08507140031 -1.701655249e-23)
(0.2732207573 0.06296147639 3.429970863e-23)
(0.2952536103 0.037262938 -6.59268176e-23)
(0.3066971055 0.006535068059 -9.303907193e-23)
(0.3049738309 -0.03087770051 1.517044252e-22)
(0.2863936247 -0.0778629097 0)
(0.2470568082 -0.1399300369 1.505611424e-22)
(0.1810922233 -0.2266299752 2.560014013e-22)
(0.09604450223 -0.3443894946 0)
(-0.006697616027 -0.4552210217 -3.675635019e-21)
(-0.01922408205 -0.3777537587 -2.892621063e-21)
(-0.02591951344 0.227682881 -9.514204874e-22)
(-0.03998324648 0.2238216533 -1.388976581e-22)
(0.03656136887 0.1810585361 -2.335582164e-22)
(0.1090503045 0.145105909 -1.19374244e-22)
(0.1817191194 0.1172445493 -4.295826868e-23)
(0.2490090735 0.09627907607 9.783182824e-23)
(0.3100336707 0.08002510381 -1.408592383e-22)
(0.3646209338 0.06656815288 1.297175493e-22)
(0.4126252498 0.05449178835 -8.620121612e-23)
(0.4536250303 0.04270894868 1.132191019e-25)
(0.4867878727 0.03032298367 1.527741906e-23)
(0.5107451368 0.01652901813 7.997205879e-23)
(0.5236597459 0.0005365139731 -1.811124053e-22)
(0.5231798017 -0.01863373279 -1.617146414e-22)
(0.5052323423 -0.04286478977 -4.262954704e-23)
(0.4658715083 -0.07633231198 0)
(0.3952696498 -0.1286089385 -1.846477573e-22)
(0.2916071048 -0.2208468098 8.148763611e-22)
(0.1197455105 -0.3525016902 1.631601614e-21)
(0.02670547257 -0.3775497979 2.172655929e-21)
(0.2142894468 0.1347447212 9.864989868e-22)
(0.277631118 0.09870503596 0)
(0.4316592282 0.0581041485 -2.594321258e-22)
(0.5304749339 0.03846264954 -1.741666915e-22)
(0.6016965748 0.02623419106 0)
(0.6571198962 0.01831923461 -6.009092986e-23)
(0.701521361 0.0131360083 6.378002375e-23)
(0.7376042509 0.009542126142 -1.800156687e-23)
(0.7669368425 0.006804463369 2.885974455e-23)
(0.7902106693 0.004464743638 2.315033386e-23)
(0.8074555016 0.002221319591 0)
(0.818262136 -0.000150075224 -2.873033192e-23)
(0.8216499719 -0.002723848489 0)
(0.81623942 -0.005712668792 2.738151207e-23)
(0.799133315 -0.009611382913 1.421692095e-23)
(0.7679986346 -0.0150025511 -5.799403564e-23)
(0.7106555755 -0.02502519955 -2.535661046e-22)
(0.623518398 -0.04204285408 -6.918101902e-22)
(0.423009102 -0.0918296808 0)
(0.2705674689 -0.1524021841 -2.119483793e-21)
)


// ************************************************************************* //
