/*--------------------------------*- C++ -*----------------------------------*\
  =========                 |
  \\      /  F ield         | OpenFOAM: The Open Source CFD Toolbox
   \\    /   O peration     | Website:  https://openfoam.org
    \\  /    A nd           | Version:  13
     \\/     M anipulation  |
\*---------------------------------------------------------------------------*/
FoamFile
{
    format      ascii;
    class       vectorField;
    location    "43";
    object      U_all;
}
// * * * * * * * * * * * * * * * * * * * * * * * * * * * * * * * * * * * * * //


400
(
(0.0001830590906 -0.00018696355 0)
(-0.0001374165149 2.983032903e-05 0)
(-0.001533986399 0.0002683007998 0)
(-0.003787721886 0.0004194553387 0)
(-0.00655023113 0.000499376486 0)
(-0.009519899208 0.0005298956978 0)
(-0.01244643605 0.000520778302 0)
(-0.01509590802 0.0004709361988 0)
(-0.01722734437 0.0003735545418 0)
(-0.01859350496 0.0002231968727 0)
(-0.01896833023 2.310200789e-05 0)
(-0.01819648725 -0.0002092860628 0)
(-0.01625291299 -0.0004399243113 0)
(-0.01329376086 -0.0006221368687 0)
(-0.009676500179 -0.0007072024776 0)
(-0.00592890195 -0.0006601497481 0)
(-0.002658348002 -0.0004748602482 0)
(-0.0004071442277 -0.0001819974086 0)
(0.0005406768936 0.0001372994972 0)
(0.0003098738621 0.0003028906514 0)
(-4.704179846e-05 0.000136377692 0)
(-0.002079827299 0.001932961864 0)
(-0.006435565838 0.003761337866 0)
(-0.01258843523 0.005025709598 0)
(-0.01977924292 0.005691361127 0)
(-0.02733637996 0.005834795832 0)
(-0.03465413227 0.005506582104 0)
(-0.04114963979 0.004713001907 0)
(-0.04624229525 0.003444191177 0)
(-0.04937304625 0.001719609997 0)
(-0.05006852553 -0.0003677350369 0)
(-0.0480386008 -0.00262293161 0)
(-0.04328475677 -0.004748288024 0)
(-0.03618692765 -0.006380144988 0)
(-0.02753148538 -0.007165343489 0)
(-0.01844654108 -0.006866649225 0)
(-0.01022341648 -0.005469382167 0)
(-0.004032704715 -0.003256427588 0)
(-0.0005760174957 -0.0008608632148 0)
(0.00022185951 0.0005899089592 0)
(-0.0003533074413 0.001717092582 0)
(-0.004487973725 0.006467641076 0)
(-0.01187448363 0.01067707892 0)
(-0.02160839133 0.01352362007 0)
(-0.03259099582 0.01495822606 0)
(-0.04390933341 0.01510856313 0)
(-0.05472397092 0.01406386456 0)
(-0.06421743867 0.01184633553 0)
(-0.07158652337 0.008469313535 0)
(-0.07607843492 0.004027816301 0)
(-0.07707323719 -0.001216939537 0)
(-0.07419946726 -0.006787527386 0)
(-0.06745962195 -0.01199673107 0)
(-0.05733494246 -0.01602669871 0)
(-0.04483141799 -0.01808732457 0)
(-0.03142340369 -0.01763832758 0)
(-0.01885423432 -0.01462510286 0)
(-0.008791845187 -0.0096519895 0)
(-0.002418467629 -0.004055441991 0)
(3.536804042e-05 2.545695538e-05 0)
(-0.0006308677413 0.004596048594 0)
(-0.006813854989 0.01367922033 0)
(-0.01710808271 0.02092985729 0)
(-0.03016213782 0.02564010083 0)
(-0.0445356429 0.02787500074 0)
(-0.0591345852 0.02785369841 0)
(-0.07297329379 0.02571551497 0)
(-0.08509298619 0.02150670605 0)
(-0.094553466 0.01527943233 0)
(-0.100471662 0.007230381625 0)
(-0.1021049323 -0.002174607002 0)
(-0.09896851707 -0.0121277682 0)
(-0.09097163646 -0.02148617917 0)
(-0.07855110783 -0.02888419466 0)
(-0.06276793759 -0.03296871992 0)
(-0.04531095774 -0.03275189129 0)
(-0.02833321859 -0.0280182584 0)
(-0.0140847891 -0.01965229353 0)
(-0.004432215428 -0.009749152528 0)
(-0.0001250509066 -0.001515127023 0)
(-0.0008700208779 0.008656866951 0)
(-0.008894523714 0.02333977415 0)
(-0.021828405 0.03418845082 0)
(-0.0378810316 0.04093481501 0)
(-0.05529186607 0.04393181891 0)
(-0.07283107839 0.04356625704 0)
(-0.08943337193 0.04005467475 0)
(-0.1040716642 0.03347358418 0)
(-0.115730823 0.02391062181 0)
(-0.1234308349 0.01165318341 0)
(-0.1262947361 -0.002645512299 0)
(-0.1236566601 -0.01786200367 0)
(-0.1152085708 -0.03238902307 0)
(-0.1011789737 -0.04425088466 0)
(-0.082516192 -0.05138916551 0)
(-0.06100928631 -0.05214676694 0)
(-0.03922717945 -0.04589924356 0)
(-0.02017094596 -0.03364000367 0)
(-0.006683066314 -0.01822305561 0)
(-0.0002714455029 -0.004089895977 0)
(-0.001067057752 0.01373868145 0)
(-0.01064848787 0.03514707404 0)
(-0.02584291793 0.05010000558 0)
(-0.04448019805 0.05904198178 0)
(-0.06453226298 0.06278773525 0)
(-0.08468158905 0.06198356935 0)
(-0.1038413522 0.05696063782 0)
(-0.1209782749 0.0478283588 0)
(-0.1350544836 0.0346861491 0)
(-0.1450193786 0.01786418013 0)
(-0.1498472988 -0.001864104397 0)
(-0.1486248576 -0.02312888467 0)
(-0.1407032227 -0.04389990454 0)
(-0.1259274775 -0.06155482024 0)
(-0.104931376 -0.07316656011 0)
(-0.07943146673 -0.07609689925 0)
(-0.0523603644 -0.06890543272 0)
(-0.02763405772 -0.05235556016 0)
(-0.009452472375 -0.03000471289 0)
(-0.0004467230536 -0.007849202867 0)
(-0.0012143615 0.01964856605 0)
(-0.01200099782 0.04871689567 0)
(-0.02897352239 0.06821570336 0)
(-0.04966809119 0.07951827871 0)
(-0.07185965532 0.08405530752 0)
(-0.09419381397 0.08282578852 0)
(-0.1156165653 0.07631771623 0)
(-0.1351474023 0.06467352809 0)
(-0.1517809443 0.0479657395 0)
(-0.1644359282 0.02649074942 0)
(-0.1719491496 0.001033315751 0)
(-0.1731298913 -0.02691434201 0)
(-0.1668993876 -0.05499862252 0)
(-0.152553693 -0.07996914498 0)
(-0.1301705562 -0.09788891404 0)
(-0.1011142651 -0.10476878 0)
(-0.06847465153 -0.0977669348 0)
(-0.03713578785 -0.07681512348 0)
(-0.01310170359 -0.04594523071 0)
(-0.0007023599262 -0.01312259259 0)
(-0.001303258965 0.02615483783 0)
(-0.01288029582 0.06357726993 0)
(-0.03104767971 0.08796922393 0)
(-0.05314079364 0.1017861441 0)
(-0.07681185353 0.1072012727 0)
(-0.1007175514 0.1056550312 0)
(-0.1238871652 0.09783881073 0)
(-0.1454524195 0.0839312692 0)
(-0.1645067481 0.06393574434 0)
(-0.1800063382 0.038024927 0)
(-0.1907119331 0.006859001308 0)
(-0.1951907738 -0.02811783052 0)
(-0.1919158459 -0.06440121483 0)
(-0.1795213285 -0.0982298848 0)
(-0.1572778092 -0.1246127094 0)
(-0.1258046798 -0.1378660795 0)
(-0.08791299792 -0.1330107247 0)
(-0.04925103871 -0.1081696766 0)
(-0.01802572038 -0.06721592385 0)
(-0.001101605325 -0.02044381937 0)
(-0.001329044118 0.03299116583 0)
(-0.01323972072 0.07917753323 0)
(-0.03193485691 0.1086767569 0)
(-0.05463344567 0.1251087244 0)
(-0.07893140466 0.1314866146 0)
(-0.1035371404 0.1297766033 0)
(-0.12760847 0.120927705 0)
(-0.1504493707 0.1051700415 0)
(-0.1713311637 0.08240756603 0)
(-0.1893480023 0.05260722222 0)
(-0.2033035417 0.01616497907 0)
(-0.2116449535 -0.02572160979 0)
(-0.2124861805 -0.07064561839 0)
(-0.2037911364 -0.1145879246 0)
(-0.183831476 -0.151644583 0)
(-0.1520339453 -0.1742581372 0)
(-0.1102515676 -0.1745480452 0)
(-0.06427773011 -0.1474242271 0)
(-0.02462337945 -0.09522940839 0)
(-0.001727643041 -0.03056402898 0)
(-0.001298386661 0.03987941183 0)
(-0.01309625965 0.0949215694 0)
(-0.03161421024 0.12955774 0)
(-0.05401604841 0.1485852061 0)
(-0.07789292912 0.1559313591 0)
(-0.102039318 0.1541717121 0)
(-0.1257830539 0.1445787 0)
(-0.1486591886 0.1274695433 0)
(-0.1702027578 0.1026462233 0)
(-0.189769239 0.06981935891 0)
(-0.2063722551 0.02900687158 0)
(-0.2185424443 -0.01903914709 0)
(-0.2242476774 -0.07230955741 0)
(-0.2209296725 -0.1269241377 0)
(-0.2058231179 -0.1764630926 0)
(-0.1767867515 -0.2116473973 0)
(-0.1338900879 -0.2211494371 0)
(-0.0819597797 -0.194963733 0)
(-0.03324180821 -0.1314490078 0)
(-0.002694372419 -0.04445910885 0)
(-0.00123923041 0.04657826331 0)
(-0.01258216317 0.1102373709 0)
(-0.0302636487 0.1497886408 0)
(-0.0514171574 0.1711787533 0)
(-0.07366590215 0.1793195544 0)
(-0.09592965466 0.1774844329 0)
(-0.1177522293 0.1673466144 0)
(-0.1389569554 0.1493682699 0)
(-0.1594236774 0.1232827246 0)
(-0.1788920123 0.08854288349 0)
(-0.1967682971 0.04473099691 0)
(-0.211917051 -0.00800018151 0)
(-0.2224769907 -0.06835989501 0)
(-0.2256919275 -0.1330840752 0)
(-0.2179661938 -0.1959050971 0)
(-0.1954616168 -0.2464463909 0)
(-0.1557174758 -0.269941764 0)
(-0.1011117505 -0.2498900118 0)
(-0.04404882964 -0.1770230094 0)
(-0.00415623683 -0.06331823976 0)
(-0.001214197414 0.0529655911 0)
(-0.01200921307 0.1246905646 0)
(-0.02835953465 0.1685937599 0)
(-0.04735009509 0.1917799653 0)
(-0.06667083187 0.2002504422 0)
(-0.08543656908 0.1980756653 0)
(-0.1034754652 0.1874095515 0)
(-0.120958593 0.1689281504 0)
(-0.1381744008 0.1423584544 0)
(-0.1553372138 0.106945004 0)
(-0.1723933392 0.06184773683 0)
(-0.1887952866 0.006550761138 0)
(-0.2031883389 -0.05858787573 0)
(-0.213073357 -0.1314299303 0)
(-0.2145366485 -0.2067044533 0)
(-0.2023203703 -0.27406157 0)
(-0.1710707005 -0.3161753735 0)
(-0.1192367574 -0.3092903487 0)
(-0.05678695704 -0.2321733347 0)
(-0.006310692727 -0.08848348238 0)
(-0.001342093652 0.05916735835 0)
(-0.01195234211 0.1381431896 0)
(-0.02677694944 0.1853603019 0)
(-0.04280658054 0.2092871816 0)
(-0.05786598412 0.2172172654 0)
(-0.07140886478 0.2141281019 0)
(-0.0836652943 0.2027130872 0)
(-0.09522454868 0.183914302 0)
(-0.1068233766 0.157518516 0)
(-0.1191876135 0.1226442772 0)
(-0.1328712134 0.07811342118 0)
(-0.1480449505 0.02279028388 0)
(-0.1641682291 -0.04395887106 0)
(-0.1795193257 -0.1214837249 0)
(-0.1905768113 -0.206339491 0)
(-0.1914380513 -0.2896886967 0)
(-0.1741690665 -0.3535378048 0)
(-0.1323378061 -0.3677173526 0)
(-0.07039019328 -0.2953080188 0)
(-0.009379297737 -0.1212680917 0)
(-0.0018385018 0.065755986 0)
(-0.01336820804 0.1509497687 0)
(-0.02687388278 0.199739477 0)
(-0.03925806603 0.2226546645 0)
(-0.04866444601 0.2286628944 0)
(-0.0551673955 0.2237479655 0)
(-0.05959281184 0.2111351226 0)
(-0.06303621758 0.1920242521 0)
(-0.06669576414 0.1662924174 0)
(-0.07178027109 0.1330120428 0)
(-0.07941577999 0.09079607976 0)
(-0.09050149892 0.03805031808 0)
(-0.1054474181 -0.02673369409 0)
(-0.1237038174 -0.1044234014 0)
(-0.1429413203 -0.1939507963 0)
(-0.1578044495 -0.2894991201 0)
(-0.1589287151 -0.3751411328 0)
(-0.1350720293 -0.4172506337 0)
(-0.0825056827 -0.3619838805 0)
(-0.01351527625 -0.1624934365 0)
(-0.003075863593 0.074043143 0)
(-0.01774326348 0.1641576239 0)
(-0.03047397075 0.2116486384 0)
(-0.03838745583 0.2308146136 0)
(-0.04043338168 0.2329220712 0)
(-0.03781470087 0.2249696671 0)
(-0.03223473544 0.2105647019 0)
(-0.02539349456 0.1910442081 0)
(-0.01893635788 0.1663306589 0)
(-0.01447351218 0.135488394 0)
(-0.01358507528 0.09704764383 0)
(-0.01777985298 0.0491795015 0)
(-0.02836012288 -0.01018053555 0)
(-0.04609090229 -0.08310074175 0)
(-0.07043621416 -0.1708912643 0)
(-0.09792014097 -0.2717914594 0)
(-0.1196761178 -0.3749693508 0)
(-0.1210844858 -0.4483949454 0)
(-0.0889893083 -0.4242469471 0)
(-0.01849368218 -0.2116844079 0)
(-0.005571750613 0.08657665603 0)
(-0.02708160195 0.1796000417 0)
(-0.03931173153 0.2209105314 0)
(-0.04086224499 0.2322160442 0)
(-0.03273100243 0.2278396315 0)
(-0.0181008542 0.2154887213 0)
(0.0001192524708 0.1987424503 0)
(0.01956596704 0.1787927478 0)
(0.03821192232 0.155464781 0)
(0.05417593763 0.1277927208 0)
(0.06559359827 0.0943163675 0)
(0.07054427876 0.05319655699 0)
(0.06704397751 0.00221428948 0)
(0.05317003471 -0.06129994586 0)
(0.02752436057 -0.140393371 0)
(-0.009276827707 -0.2374266065 0)
(-0.05117643497 -0.3491082125 0)
(-0.08309589283 -0.4515333436 0)
(-0.08341574433 -0.4710993938 0)
(-0.02311239002 -0.2667087001 0)
(-0.00989205376 0.1087125446 0)
(-0.04294225779 0.1996045468 0)
(-0.05212021713 0.225793363 0)
(-0.04160573618 0.2233566928 0)
(-0.01760669199 0.2096533445 0)
(0.0136043129 0.1919005472 0)
(0.04784826479 0.1727906871 0)
(0.08229186507 0.1528881501 0)
(0.114769482 0.1316843698 0)
(0.1433784443 0.1081159834 0)
(0.1662161459 0.0807941267 0)
(0.1812064802 0.04805632668 0)
(0.1859794564 0.007895996717 0)
(0.1778320115 -0.04228938166 0)
(0.1538174429 -0.1061838463 0)
(0.1115616427 -0.1890858503 0)
(0.05237256298 -0.2959729229 0)
(-0.0124788763 -0.4177219904 0)
(-0.05673299047 -0.4889361455 0)
(-0.02465292955 -0.3240273897 0)
(-0.01781066715 0.1516706527 0)
(-0.06128155453 0.2236380205 0)
(-0.05221906763 0.2176891109 0)
(-0.01426231342 0.1949896011 0)
(0.03556557795 0.1711288642 0)
(0.08881264174 0.1491521956 0)
(0.1414898231 0.1294546321 0)
(0.191308094 0.1114440223 0)
(0.2366691206 0.09408236713 0)
(0.2761713242 0.0761894188 0)
(0.30828312 0.0565323667 0)
(0.3311360142 0.03378852596 0)
(0.342352046 0.006441804176 0)
(0.3389371206 -0.02749062635 0)
(0.3170850759 -0.07116872507 0)
(0.2722136682 -0.1305306855 0)
(0.2001272955 -0.2164856623 0)
(0.1029916681 -0.3383492016 0)
(0.004361814464 -0.4567813831 0)
(-0.01596147602 -0.3693189552 0)
(-0.02422287682 0.2082671934 0)
(-0.03791351116 0.2303588104 0)
(0.03728083597 0.1765402328 0)
(0.1250796736 0.1368717074 0)
(0.2058760591 0.1090861334 0)
(0.2780830319 0.08824630567 0)
(0.342362536 0.07215114927 0)
(0.3989983616 0.05921149532 0)
(0.4480352987 0.04804651345 0)
(0.4892412415 0.03752469385 0)
(0.521941505 0.02670623583 0)
(0.5449028319 0.01474409641 0)
(0.5562436851 0.0007656867524 0)
(0.553313244 -0.01630060435 0)
(0.5322982872 -0.03829355869 0)
(0.4877352754 -0.06915369681 0)
(0.4111363113 -0.1191006863 0)
(0.2908837547 -0.2093511796 0)
(0.1331305727 -0.3382884303 0)
(0.03877378483 -0.3403642642 0)
(0.2418861709 0.1091329634 0)
(0.3134555463 0.09711721723 0)
(0.4443210032 0.05696734283 0)
(0.5496334984 0.03510731107 0)
(0.6240726018 0.02373719538 0)
(0.6796265314 0.01670724814 0)
(0.7235137304 0.01197752333 0)
(0.7588295375 0.008691845295 0)
(0.7871227883 0.006253324888 0)
(0.8091906293 0.004230631327 0)
(0.8252113157 0.002329310496 0)
(0.8348152102 0.000341559402 0)
(0.8371405808 -0.00190897005 0)
(0.8307685743 -0.004590485888 0)
(0.8133979516 -0.008028445112 0)
(0.7811369077 -0.01288493575 0)
(0.7256931953 -0.02122972137 0)
(0.6298640413 -0.03809284704 0)
(0.4592685781 -0.08554976741 0)
(0.3048939116 -0.1256976701 0)
)


// ************************************************************************* //
