/*--------------------------------*- C++ -*----------------------------------*\
  =========                 |
  \\      /  F ield         | OpenFOAM: The Open Source CFD Toolbox
   \\    /   O peration     | Website:  https://openfoam.org
    \\  /    A nd           | Version:  13
     \\/     M anipulation  |
\*---------------------------------------------------------------------------*/
FoamFile
{
    format      ascii;
    class       volScalarField;
    location    "46";
    object      p;
}
// * * * * * * * * * * * * * * * * * * * * * * * * * * * * * * * * * * * * * //

dimensions      [0 2 -2 0 0 0 0];

internalField   nonuniform List<scalar> 
400
(
1.973929269e-06
-0.0005261757761
-0.001172706111
-0.001673874404
-0.001909666126
-0.001830555057
-0.001411907847
-0.000642629949
0.0004682920155
0.001876650458
0.003487949716
0.005151118394
0.006669544588
0.007832848128
0.008467330143
0.008492640008
0.007965102048
0.00709153831
0.006204875342
0.005650920842
0.0005412271305
-6.818241044e-06
-0.0005782599244
-0.0009787568396
-0.001156207757
-0.001083684845
-0.0007398717786
-0.0001095260282
0.0008078521108
0.001983191786
0.003342870551
0.004761589419
0.006069688771
0.007081595034
0.007641691573
0.007676606312
0.007233548335
0.006485269323
0.005693763145
0.005130236323
0.001214277549
0.0005283423808
-7.564396309e-05
-0.0004411193852
-0.000603423068
-0.0005700358429
-0.0003254472253
0.0001531468504
0.0008824275714
0.001855179078
0.00302177921
0.004278508063
0.005470609805
0.006416983263
0.006955704767
0.006998806502
0.006573122305
0.005819433711
0.004943233623
0.004209308472
0.00169793326
0.0008133231414
9.133685737e-05
-0.0003175803092
-0.0005277066215
-0.0005794004016
-0.0004606439658
-0.0001363091142
0.000432742366
0.001266527727
0.002340841091
0.003568129543
0.00479383585
0.005817524612
0.006440730108
0.006531365721
0.006077958719
0.0051942845
0.004066033451
0.003029852287
0.001736111102
0.0006507538845
-0.0002151786645
-0.0007117049437
-0.001020302226
-0.001206498149
-0.00125566501
-0.001114098626
-0.0007132710704
1.41559798e-06
0.001037774839
0.002328251794
0.003715381118
0.00496619589
0.005820535745
0.006068795795
0.005630474736
0.004579841505
0.003102613988
0.00166826689
0.001116398647
-0.0001477046544
-0.001158863195
-0.001772803715
-0.002227543964
-0.002605622054
-0.002883452872
-0.002982369679
-0.002796527061
-0.002226063186
-0.001217691402
0.0001955596109
0.001862323074
0.003514158627
0.004806784799
0.005410996487
0.005126706206
0.003950340207
0.002064788833
0.000134061249
-0.0003396758089
-0.001750097076
-0.002899517104
-0.003658101033
-0.004310754651
-0.004950796744
-0.005541459072
-0.005974200443
-0.006097745143
-0.00575294632
-0.004819497179
-0.003271897515
-0.001227766142
0.001020777423
0.003030271747
0.004301799829
0.004438386134
0.003280077088
0.0009674152646
-0.001570807206
-0.002769121907
-0.004287175478
-0.005563821151
-0.006493643741
-0.007400123052
-0.008384400903
-0.009396039251
-0.01029489128
-0.01087781517
-0.01091154209
-0.01018255926
-0.008565434962
-0.006101297673
-0.003068464893
-3.549006044e-06
0.002377547468
0.003375980119
0.002538682944
-0.0001402559856
-0.003398086205
-0.006255475583
-0.00783781299
-0.009225009769
-0.01034605691
-0.01155739463
-0.01296963251
-0.01452310647
-0.01604909218
-0.01729035874
-0.01792722677
-0.0176252716
-0.0161128964
-0.0132901195
-0.009352088635
-0.004882802602
-0.0008344139975
0.001675371086
0.001694414822
-0.00113765082
-0.005191764721
-0.01081911312
-0.01241812864
-0.0138864499
-0.01519640259
-0.01673761287
-0.01863820621
-0.02083928858
-0.02315197139
-0.02526882658
-0.02677857205
-0.02720487864
-0.02608574952
-0.02310948114
-0.01828622743
-0.01214648169
-0.005833149865
-0.0009688865198
0.0007352086874
-0.001782463583
-0.006600903933
-0.0164174038
-0.0179800806
-0.019473417
-0.02092064294
-0.02275680892
-0.02514468077
-0.02804135227
-0.03125017259
-0.03442285005
-0.0370604442
-0.03853752136
-0.03817185719
-0.03538665846
-0.02988807187
-0.02200352118
-0.01292588068
-0.004770421703
-0.0002577552557
-0.001632089093
-0.006947910453
-0.02296397645
-0.0244267008
-0.02583918653
-0.02728434591
-0.02927786539
-0.03204699111
-0.03558336608
-0.03969473574
-0.04400212486
-0.04792895063
-0.05071095862
-0.05145272278
-0.04924033424
-0.04342990933
-0.03397153976
-0.02187527122
-0.009577155738
-0.0009354003522
8.945923649e-05
-0.005032989896
-0.03037863381
-0.0316498693
-0.03278740044
-0.03395446511
-0.03582255971
-0.03872877025
-0.0427161828
-0.04760125894
-0.0529769634
-0.05819604702
-0.06236687204
-0.06438936047
-0.06306121086
-0.05731787705
-0.04661949354
-0.03153823955
-0.01449828434
-0.0003786344258
0.004725863813
0.001144787485
-0.0386897055
-0.03959581255
-0.04010537402
-0.04052255543
-0.04180889605
-0.04446692027
-0.04859467477
-0.05400297743
-0.06024136851
-0.0665844217
-0.0720191201
-0.07526388366
-0.07485316277
-0.06933668933
-0.05764998611
-0.03974090245
-0.01761416879
0.003254265908
0.01454210363
0.01474453765
-0.04823720158
-0.04836788284
-0.04759832862
-0.04652911246
-0.04660719169
-0.04853510888
-0.05243187079
-0.0580566477
-0.0648742069
-0.07205083881
-0.07843784257
-0.08257735183
-0.08276594536
-0.07722008627
-0.0643999702
-0.04358385114
-0.01602166881
0.0128855817
0.03298696976
0.04030338705
-0.0600196821
-0.05839363731
-0.05513295398
-0.05150005015
-0.04962467475
-0.05033739531
-0.05366864309
-0.05923828206
-0.06635862855
-0.07403685652
-0.08095299529
-0.08545273851
-0.08559280034
-0.0792805944
-0.06456339404
-0.04011883813
-0.006300609267
0.03227230971
0.0644698426
0.08326369815
-0.07628439751
-0.07074031097
-0.06267892958
-0.05498974139
-0.05040312726
-0.04952927833
-0.0520903019
-0.05743949485
-0.06465381912
-0.07252422903
-0.07951985039
-0.08375902553
-0.08302992292
-0.07489693683
-0.05696995923
-0.02733810803
0.01456475299
0.06548683571
0.1143827433
0.1501824207
-0.104187021
-0.08795310583
-0.06999403328
-0.0562749755
-0.04837548429
-0.04578534022
-0.04759665917
-0.05274250733
-0.05997807367
-0.06784214221
-0.07458607789
-0.07810150206
-0.07590059355
-0.06514290414
-0.04284219692
-0.006181631773
0.04677996829
0.1153432384
0.1914958271
0.2583048093
-0.1759871187
-0.1148980718
-0.07361095986
-0.05188428127
-0.04117503688
-0.03757352247
-0.0392909984
-0.04475037142
-0.0523398556
-0.06038636828
-0.06700472293
-0.06994502562
-0.06652934553
-0.05358158333
-0.0273756109
0.01642556318
0.0827586287
0.1774026874
0.3054482605
0.4527045422
-0.3558579893
-0.1552618786
-0.07043299059
-0.04277667912
-0.03134415377
-0.02760015086
-0.02978581893
-0.03597674886
-0.04422937682
-0.05274203277
-0.05960049994
-0.0625438254
-0.05884470826
-0.04517351583
-0.01723920539
0.03082722107
0.1084437566
0.2333797476
0.4348259001
0.7358909589
)
;

boundaryField
{
    movingWall
    {
        type            zeroGradient;
    }
    fixedWalls
    {
        type            zeroGradient;
    }
    frontAndBack
    {
        type            empty;
    }
}


// ************************************************************************* //
