/*--------------------------------*- C++ -*----------------------------------*\
  =========                 |
  \\      /  F ield         | OpenFOAM: The Open Source CFD Toolbox
   \\    /   O peration     | Website:  https://openfoam.org
    \\  /    A nd           | Version:  13
     \\/     M anipulation  |
\*---------------------------------------------------------------------------*/
FoamFile
{
    format      ascii;
    class       surfaceScalarField;
    location    "46";
    object      phi;
}
// * * * * * * * * * * * * * * * * * * * * * * * * * * * * * * * * * * * * * //

dimensions      [0 3 -1 0 0 0 0];

internalField   nonuniform List<scalar> 
760
(
-1.321879073e-05
1.321862169e-05
-7.201775574e-05
5.87989638e-05
-0.0001620727197
9.00549671e-05
-0.0002652228963
0.0001031502082
-0.0003682425764
0.0001030197094
-0.000461504422
9.326182499e-05
-0.0005377500828
7.624559309e-05
-0.0005912422052
5.349206177e-05
-0.0006175094123
2.626720678e-05
-0.0006135894126
-3.919937791e-06
-0.0005784600433
-3.512929355e-05
-0.0005138428004
-6.461720136e-05
-0.0004246595091
-8.918330651e-05
-0.0003192817939
-0.0001053777663
-0.0002092254382
-0.0001100564015
-0.0001081386293
-0.0001010868227
-2.992502948e-05
-7.821358168e-05
1.414932482e-05
-4.407431412e-05
2.190955098e-05
-7.760172498e-06
2.190958324e-05
-6.870333442e-05
8.192195647e-05
-0.0002457755618
0.0002358712024
-0.0004934732823
0.0003377526436
-0.000772278016
0.0003819548858
-0.001050409614
0.0003811513216
-0.001303006372
0.0003458586833
-0.001510604436
0.0002838437745
-0.001657872453
0.0002007601166
-0.001733200017
0.0001015946963
-0.00172930582
-7.814280969e-06
-0.0016438315
-0.0001206037038
-0.001481414082
-0.0002270346212
-0.00125438186
-0.0003162154586
-0.000983294859
-0.0003764646888
-0.0006961416007
-0.0003972096236
-0.0004257314594
-0.0003714969726
-0.0002049932765
-0.0002989517797
-5.981231582e-05
-0.0001892552613
-4.921843664e-07
-6.708028597e-05
2.14174327e-05
-0.0001229342004
0.0002048561491
-0.0004149723642
0.0005279094134
-0.0008086682741
0.0007314485806
-0.001247165322
0.0008204519032
-0.001684661824
0.0008186477557
-0.002084430675
0.0007456274789
-0.002416966172
0.0006163792736
-0.002658576833
0.0004423708323
-0.002790992181
0.0002340101065
-0.002802414098
3.6076814e-06
-0.0026879026
-0.000235115202
-0.002452961998
-0.0004619752487
-0.002114172032
-0.0006550054439
-0.001700374457
-0.0007902622694
-0.001251822476
-0.0008457616099
-0.0008167447579
-0.0008065747094
-0.0004446233464
-0.0006710732133
-0.0001762321094
-0.0004576465091
-3.221223397e-05
-0.0002111001547
-1.079477805e-05
-0.0001720783706
0.0003769344905
-0.0005725608049
0.0009283918391
-0.00110596787
0.001264855699
-0.001698036588
0.001412520677
-0.002290597284
0.001411208467
-0.002837254735
0.001292284892
-0.003300217703
0.001079342178
-0.003648292548
0.0007904456324
-0.003856339484
0.0004420570402
-0.003905816684
5.308493156e-05
-0.003787748207
-0.0003531836328
-0.003504025287
-0.0007456981408
-0.003071272822
-0.00108775791
-0.002522631101
-0.001338904015
-0.001907996351
-0.001460396402
-0.001290905681
-0.001423665432
-0.0007407543087
-0.001221224633
-0.0003202709411
-0.0008781298953
-7.11022518e-05
-0.0004602688483
-8.189702183e-05
-0.0002170221119
0.0005939565999
-0.0007188333212
0.001430202976
-0.001385655886
0.001931678244
-0.00212712372
0.00215398854
-0.002874374382
0.002158459184
-0.00357319566
0.001991106207
-0.004178979744
0.001685126254
-0.004653584884
0.001265050731
-0.004964199215
0.0007526713319
-0.005084017972
0.0001729036723
-0.004995023847
-0.0004421777342
-0.004691189485
-0.001049532465
-0.004183518553
-0.001595428821
-0.003504390132
-0.002018032449
-0.002710450379
-0.002254336196
-0.001881578115
-0.002252537751
-0.001113233305
-0.001989569488
-0.0005008211245
-0.00149054209
-0.0001191421517
-0.0008419478257
-0.0002010391755
-0.0002573667639
0.0008513234023
-0.0008513399223
0.002024176109
-0.001642296915
0.002722635196
-0.002526557605
0.003038249208
-0.003426901531
0.00305880312
-0.004283389178
0.002847593884
-0.005046215244
0.002447952341
-0.005671018669
0.001889854154
-0.006116752055
0.001198404698
-0.00634598254
0.0004021341411
-0.006327843946
-0.0004603163199
-0.006042476762
-0.001334899619
-0.005488324159
-0.002149581393
-0.004689982336
-0.002816374263
-0.003705727855
-0.003238590695
-0.002631183566
-0.003327082073
-0.001594227071
-0.00302652601
-0.0007363872811
-0.002348381882
-0.0001821206686
-0.001396214438
-0.0003831598456
-0.0002911841726
0.00114250758
-0.0009641253565
0.002697117331
-0.00186416394
0.003622673785
-0.002878145909
0.004052231169
-0.003923464938
0.004104122139
-0.004937002005
0.003861130948
-0.005865889295
0.003376839632
-0.006661002572
0.002684967431
-0.007273440314
0.00181084244
-0.007653973983
0.0007826678118
-0.007755806408
-0.0003584838853
-0.007539789148
-0.001550916857
-0.006984028127
-0.002705342385
-0.006095814852
-0.003704587513
-0.004925704582
-0.004408700956
-0.00357948016
-0.004673306498
-0.002220388395
-0.004385617779
-0.00105084574
-0.003517924532
-0.0002684677987
-0.002178592376
-0.0006516276438
-0.0003159656298
0.001458473171
-0.001048737694
0.003429889418
-0.002034531905
0.004608468025
-0.003154904041
0.00517260333
-0.004325133442
0.005274351551
-0.005481849661
0.005017847162
-0.006571932577
0.004466922531
-0.007544121398
0.003657156234
-0.008343811662
0.002610532693
-0.008911130858
0.001349987009
-0.009182806708
-8.680802561e-05
-0.009097013276
-0.001636710271
-0.008604584765
-0.003197770873
-0.007684199514
-0.004624972737
-0.006364068835
-0.005728831612
-0.004746043715
-0.006291331602
-0.003022882444
-0.00610877904
-0.001469581394
-0.005071225574
-0.0003882445586
-0.003259929208
-0.001039872202
-0.0003291956275
0.001787668777
-0.001096443102
0.004197136871
-0.002135079778
0.005647104712
-0.003325368532
0.00636289211
-0.004583651772
0.006532634817
-0.005849373541
0.006283568938
-0.007072575195
0.005690124172
-0.008203825043
0.004788406055
-0.009187258642
0.003593966268
-0.009956893976
0.00211962233
-0.0104360698
0.0003923677995
-0.01054225011
-0.001530529956
-0.01019503537
-0.003544985598
-0.009334089547
-0.005485918538
-0.007946629345
-0.007116291793
-0.006105927023
-0.008132033908
-0.004012930402
-0.00820177565
-0.002014593055
-0.007069562916
-0.0005528022351
-0.004721720026
-0.001592674439
-0.0003297928695
0.00211746166
-0.001101701888
0.004969045857
-0.002151423431
0.006696826247
-0.003361078008
0.007572546698
-0.004650845763
0.00782240259
-0.005965957061
0.007598680249
-0.007263379602
0.00698754671
-0.008500566171
0.006025592606
-0.009627012031
0.004720412101
-0.01057860298
0.003071213259
-0.01127459555
0.001088360347
-0.01161814906
-0.001186976453
-0.01150162936
-0.00366150529
-0.01082052644
-0.006167021456
-0.009503001637
-0.008433816585
-0.007560609042
-0.01007442649
-0.005160873428
-0.01060151126
-0.00269611564
-0.009534320702
-0.0007741503552
-0.006643685313
-0.002366824796
-0.0003199349316
0.002437396602
-0.001066686734
0.005715797646
-0.002080423957
0.007710563463
-0.003246814677
0.008738937423
-0.004492308068
0.009067895992
-0.00577087346
0.008877245652
-0.007050316276
0.008266989531
-0.008300542302
0.007275818627
-0.009484302232
0.005904172016
-0.01054996274
0.00413687375
-0.01142562086
0.001964018439
-0.01201417236
-0.0005984249711
-0.01219379475
-0.00348188291
-0.01182096898
-0.006539847229
-0.01075537877
-0.0094994068
-0.008913750739
-0.01191605452
-0.006370857903
-0.0131444041
-0.003498965229
-0.01240621338
-0.001063151399
-0.009079499145
-0.003429976198
-0.000307409424
0.002744806013
-0.001006587461
0.006414975683
-0.00193835479
0.008642330798
-0.002991898945
0.009792481589
-0.00410281342
0.01017881048
-0.00523744893
0.01001188117
-0.006378627952
0.009408168565
-0.007514083729
0.008411274412
-0.008627331682
0.00701741997
-0.009689844083
0.005199386142
-0.01065314226
0.002927316601
-0.01143756773
0.000186000479
-0.0119294561
-0.002989994556
-0.01196499041
-0.006504312933
-0.01134373895
-0.01012065826
-0.009868967809
-0.01339082567
-0.007460114271
-0.01555325764
-0.004363834586
-0.01550249307
-0.001425535646
-0.01201779809
-0.004855511845
-0.0003089282585
0.003053734248
-0.0009555674097
0.007061614833
-0.001768490006
0.009455253406
-0.002639390511
0.01066338211
-0.003518261984
0.01105768196
-0.004389722549
0.01088334175
-0.005256719133
0.01027516517
-0.006129514438
0.009284069736
-0.007017707007
0.007905612552
-0.007923326547
0.006105005686
-0.008832213133
0.00383620318
-0.009704214426
0.00105800176
-0.01045072626
-0.002243482736
-0.01092411998
-0.006030919227
-0.01089502842
-0.01014974982
-0.0100648881
-0.01422096599
-0.008157305509
-0.01746084023
-0.005167631651
-0.01849216692
-0.001854349002
-0.01533108074
-0.006709860848
-0.0003552700533
0.003409004289
-0.0009733331542
0.007679677929
-0.001646057406
0.01012797767
-0.002268710352
0.01128603507
-0.002816839971
0.01160581159
-0.003303693564
0.01137019535
-0.003759409953
0.01073088157
-0.00422092462
0.009745584422
-0.004726146781
0.00841083473
-0.00530976255
0.006688621466
-0.005996656486
0.00452309712
-0.006791798128
0.001853143399
-0.007660585454
-0.001374695413
-0.008503029264
-0.005188475417
-0.009113178088
-0.009539600993
-0.00914250803
-0.01419163605
-0.00812840064
-0.01847494761
-0.005711156566
-0.020909411
-0.002318284784
-0.01872395252
-0.009028145633
-0.0005003770198
0.003909381308
-0.001151296464
0.008330597371
-0.001674820997
0.0106515022
-0.001981640282
0.01159285434
-0.002095672388
0.01171984368
-0.002075735565
0.01135025852
-0.001988477058
0.01064362307
-0.001901151148
0.009658258524
-0.001878926944
0.00838861054
-0.001985970921
0.006795665454
-0.002282466758
0.004819592964
-0.002818755545
0.002389432191
-0.003622152011
-0.0005712989424
-0.00466884271
-0.004141784713
-0.005834634802
-0.008373808895
-0.006807663606
-0.01321860723
-0.007016668753
-0.01826594246
-0.005716400994
-0.02220967876
-0.00273956708
-0.02170078643
-0.01176771271
-0.0008308853655
0.004740266677
-0.001604832835
0.009104544847
-0.001950979334
0.01099764869
-0.001839382746
0.01148125773
-0.001385434773
0.01126589568
-0.0007181316016
0.01068295533
4.821341382e-05
0.009877278042
0.0008164049162
0.008890067024
0.001495360884
0.007709654579
0.001998424429
0.006292601914
0.00223851781
0.004579499587
0.002128355171
0.002499594835
0.001583160313
-2.610407928e-05
0.0005450317361
-0.00310365613
-0.0009843144357
-0.006844462716
-0.002828401659
-0.01137452001
-0.004459125893
-0.01663521822
-0.004810489481
-0.02185831517
-0.002944290902
-0.02356698501
-0.01471200361
-0.001465682525
0.006205949202
-0.002379876634
0.01001873897
-0.002373444844
0.01099121689
-0.001603541842
0.0107113547
-0.0003496262634
0.01001198007
0.001163642745
0.009169686301
0.002771842262
0.008269078519
0.004349534407
0.007312374884
0.005791624035
0.006267564957
0.006998015273
0.00508621068
0.007865493664
0.003712021197
0.008282285685
0.002082802813
0.008123822594
0.000132359013
0.00726449709
-0.002244330622
0.005585213336
-0.005165178959
0.003073873248
-0.008863179915
7.897206344e-05
-0.01364031704
-0.002445747295
-0.01933359581
-0.002601077993
-0.02341165431
-0.01731308161
-0.002365504008
0.008571453207
-0.002963808722
0.01061704371
-0.001922814009
0.009950222184
8.111543131e-05
0.008707425226
0.00253488732
0.007558208157
0.005140256001
0.00656431761
0.007719753935
0.005689580586
0.01015462193
0.00487750689
0.01234957395
0.00407261295
0.01421200275
0.003223781881
0.01564054064
0.002283483308
0.01651758937
0.001205754077
0.01669710002
-4.715163596e-05
0.01602712654
-0.00157435715
0.01430509029
-0.003443142704
0.01133283094
-0.005890920565
0.007055613839
-0.009363099934
0.002201623706
-0.01447960567
-0.001027320525
-0.02018271008
-0.01834040213
-0.002150342883
0.01072179609
-7.199473729e-05
0.008538695465
0.003741898461
0.006136329152
0.007719772861
0.00472955083
0.01156187107
0.003716109944
0.01514101066
0.002985178023
0.01839885633
0.002431734926
0.02130155574
0.001974807482
0.02381243396
0.001561734738
0.02587973509
0.001156480742
0.02743056925
0.0007326491444
0.02836472842
0.0002715949006
0.02857561765
-0.0002580408745
0.0278876654
-0.0008864049005
0.0260993414
-0.001654818701
0.02290826574
-0.00269984491
0.01790696689
-0.004361801084
0.01076690818
-0.007339546961
0.002912180382
-0.01232798228
-0.01542822175
0.01072179613
0.01926049159
0.02539682074
0.03012637157
0.03384248152
0.03682765954
0.03925939447
0.04123420195
0.04279593669
0.04395241743
0.04468506657
0.04495666146
0.04469862058
0.04381221568
0.04215739698
0.03945755207
0.03509575099
0.02775620403
0.01542822175
)
;

boundaryField
{
    movingWall
    {
        type            calculated;
        value           uniform 0;
    }
    fixedWalls
    {
        type            calculated;
        value           uniform 0;
    }
    frontAndBack
    {
        type            empty;
    }
}


// ************************************************************************* //
