/*--------------------------------*- C++ -*----------------------------------*\
  =========                 |
  \\      /  F ield         | OpenFOAM: The Open Source CFD Toolbox
   \\    /   O peration     | Website:  https://openfoam.org
    \\  /    A nd           | Version:  13
     \\/     M anipulation  |
\*---------------------------------------------------------------------------*/
FoamFile
{
    format      ascii;
    class       surfaceScalarField;
    location    "46";
    object      phi_0;
}
// * * * * * * * * * * * * * * * * * * * * * * * * * * * * * * * * * * * * * //

dimensions      [0 3 -1 0 0 0 0];

internalField   nonuniform List<scalar> 
760
(
-1.321879029e-05
1.321862321e-05
-7.201775576e-05
5.879896554e-05
-0.0001620727094
9.005495546e-05
-0.0002652228898
0.0001031501838
-0.0003682425899
0.0001030196997
-0.0004615044471
9.326185239e-05
-0.0005377500959
7.624564519e-05
-0.0005912421925
5.349209914e-05
-0.0006175093842
2.626719894e-05
-0.0006135893932
-3.919985127e-06
-0.0005784600488
-3.512934353e-05
-0.0005138428291
-6.461722365e-05
-0.00042465954
-8.918329214e-05
-0.0003192818037
-0.0001053777337
-0.0002092254173
-0.0001100563778
-0.0001081385849
-0.0001010868212
-2.99249795e-05
-7.821359658e-05
1.414935895e-05
-4.407433425e-05
2.190956661e-05
-7.760203987e-06
2.190955507e-05
-6.870332991e-05
8.19219533e-05
-0.0002457755742
0.000235871211
-0.0004934732859
0.0003377526621
-0.0007722779961
0.0003819548908
-0.001050409589
0.0003811512966
-0.001303006369
0.0003458586401
-0.001510604463
0.0002838437452
-0.001657872489
0.0002007601252
-0.001733200034
0.0001015947391
-0.001729305804
-7.814224901e-06
-0.001643831475
-0.0001206036748
-0.001481414071
-0.0002270346227
-0.001254381872
-0.0003162154782
-0.0009832948795
-0.0003764647096
-0.0006961416032
-0.0003972096387
-0.0004257314287
-0.000371496987
-0.0002049932241
-0.0002989518021
-5.981226928e-05
-0.0001892552967
-4.921623978e-07
-6.708033526e-05
2.14173969e-05
-0.0001229341843
0.0002048561364
-0.0004149723655
0.0005279093975
-0.0008086682911
0.0007314485894
-0.001247165334
0.000820451932
-0.001684661819
0.0008186477795
-0.002084430657
0.0007456274757
-0.002416966157
0.0006163792442
-0.002658576831
0.0004423707994
-0.002790992185
0.0002340100948
-0.002802414109
3.607701417e-06
-0.002687902609
-0.0002351151717
-0.002452962006
-0.0004619752223
-0.002114172045
-0.0006550054348
-0.001700374471
-0.0007902622776
-0.001251822479
-0.0008457616277
-0.0008167447359
-0.0008065747321
-0.0004446233066
-0.0006710732417
-0.0001762320751
-0.0004576465448
-3.221221499e-05
-0.0002111001991
-1.079481401e-05
-0.0001720783589
0.0003769344936
-0.000572560781
0.0009283918191
-0.001105967866
0.001264855677
-0.001698036605
0.001412520673
-0.002290597308
0.001411208485
-0.002837254746
0.001292284917
-0.003300217692
0.001079342191
-0.003648292522
0.0007904456258
-0.003856339459
0.0004420570226
-0.003905816677
5.308491679e-05
-0.003787748221
-0.0003531836311
-0.003504025316
-0.000745698125
-0.003071272855
-0.00108775789
-0.002522631127
-0.001338904002
-0.001907996359
-0.001460396398
-0.001290905665
-0.001423665436
-0.0007407542762
-0.001221224644
-0.0003202709156
-0.0008781299145
-7.110223756e-05
-0.0004602688743
-8.189704665e-05
-0.0002170221235
0.0005939566181
-0.0007188332999
0.001430202989
-0.001385655863
0.001931678237
-0.002127123713
0.002153988523
-0.002874374398
0.002158459172
-0.003573195684
0.001991106208
-0.004178979755
0.001685126266
-0.00465358487
0.001265050741
-0.004964199187
0.0007526713328
-0.005084017946
0.0001729036659
-0.004995023845
-0.0004421777398
-0.00469118951
-0.001049532461
-0.004183518593
-0.001595428805
-0.003504390168
-0.002018032425
-0.002710450396
-0.002254336171
-0.001881578106
-0.002252537731
-0.00111323328
-0.001989569477
-0.0005008211064
-0.001490542088
-0.0001191421413
-0.0008419478314
-0.0002010391834
-0.0002573667798
0.0008513234011
-0.0008513399225
0.00202417613
-0.001642296902
0.002722635214
-0.002526557593
0.003038249212
-0.003426901531
0.00305880311
-0.004283389191
0.002847593871
-0.005046215256
0.002447952333
-0.005671018666
0.001889854153
-0.006116752035
0.0011984047
-0.006345982513
0.0004021341403
-0.006327843933
-0.0004603163244
-0.006042476774
-0.001334899621
-0.005488324192
-0.002149581384
-0.004689982372
-0.002816374241
-0.003705727877
-0.003238590663
-0.002631183567
-0.00332708204
-0.001594227057
-0.003026525984
-0.0007363872709
-0.002348381868
-0.0001821206621
-0.001396214431
-0.0003831598422
-0.0002911841647
0.001142507564
-0.0009641253602
0.002697117328
-0.001864163942
0.003622673796
-0.002878145911
0.004052231183
-0.003923464943
0.004104122145
-0.004937002013
0.003861130943
-0.005865889299
0.003376839621
-0.006661002565
0.002684967418
-0.007273440296
0.00181084243
-0.00765397396
0.0007826678026
-0.007755806391
-0.0003584838945
-0.007539789147
-0.001550916865
-0.006984028144
-0.002705342386
-0.006095814878
-0.003704587502
-0.004925704603
-0.004408700933
-0.003579480168
-0.00467330647
-0.002220388393
-0.004385617754
-0.001050845737
-0.003517924515
-0.0002684677962
-0.002178592365
-0.0006516276369
-0.0003159656081
0.001458473167
-0.001048737683
0.003429889403
-0.002034531905
0.004608468018
-0.003154904051
0.005172603333
-0.004325133458
0.005274351559
-0.005481849677
0.005017847168
-0.006571932583
0.00446692253
-0.00754412139
0.003657156225
-0.008343811643
0.00261053268
-0.008911130835
0.001349986993
-0.009182806689
-8.680804281e-05
-0.009097013268
-0.001636710287
-0.008604584768
-0.003197770884
-0.007684199527
-0.00462497274
-0.00636406885
-0.005728831606
-0.004746043726
-0.006291331589
-0.00302288245
-0.006108779027
-0.001469581397
-0.005071225564
-0.0003882445595
-0.0032599292
-0.001039872197
-0.0003291956179
0.001787668783
-0.001096443083
0.004197136864
-0.002135079767
0.005647104702
-0.003325368536
0.006362892105
-0.004583651791
0.006532634819
-0.005849373564
0.006283568946
-0.007072575209
0.00569012418
-0.008203825042
0.004788406059
-0.009187258627
0.003593966263
-0.009956893954
0.002119622316
-0.01043606978
0.0003923677805
-0.01054225009
-0.001530529977
-0.01019503536
-0.003544985617
-0.009334089549
-0.005485918553
-0.007946629353
-0.007116291801
-0.006105927032
-0.00813203391
-0.004012930411
-0.008201775649
-0.002014593062
-0.007069562913
-0.0005528022383
-0.004721720024
-0.001592674437
-0.0003297928742
0.002117461659
-0.001101701871
0.004969045859
-0.002151423414
0.006696826246
-0.003361078005
0.007572546697
-0.004650845776
0.007822402592
-0.005965957083
0.007598680256
-0.007263379622
0.006987546722
-0.00850056618
0.006025592619
-0.009627012026
0.004720412108
-0.01057860297
0.003071213257
-0.01127459553
0.001088360335
-0.01161814904
-0.001186976471
-0.01150162935
-0.00366150531
-0.01082052643
-0.006167021474
-0.009503001638
-0.0084338166
-0.007560609048
-0.0100744265
-0.005160873435
-0.01060151126
-0.002696115647
-0.009534320706
-0.0007741503588
-0.006643685314
-0.002366824797
-0.0003199349334
0.002437396593
-0.001066686721
0.005715797646
-0.00208042394
0.007710563467
-0.00324681467
0.008738937426
-0.004492308074
0.009067895995
-0.005770873476
0.008877245659
-0.007050316296
0.008266989544
-0.008300542317
0.007275818644
-0.009484302238
0.005904172032
-0.01054996274
0.004136873759
-0.01142562085
0.001964018439
-0.01201417234
-0.0005984249785
-0.01219379473
-0.003481882922
-0.01182096897
-0.006539847242
-0.01075537876
-0.009499406812
-0.00891375074
-0.01191605453
-0.006370857907
-0.0131444041
-0.003498965233
-0.01240621338
-0.001063151402
-0.009079499147
-0.003429976199
-0.0003074094141
0.002744806005
-0.001006587444
0.00641497568
-0.001938354774
0.008642330798
-0.002991898937
0.009792481588
-0.004102813422
0.01017881048
-0.00523744894
0.01001188118
-0.006378627967
0.009408168574
-0.007514083746
0.008411274427
-0.008627331696
0.007017419987
-0.009689844091
0.005199386157
-0.01065314226
0.002927316612
-0.01143756772
0.0001860004843
-0.01192945609
-0.002989994555
-0.0119649904
-0.006504312936
-0.01134373895
-0.01012065827
-0.009868967807
-0.01339082567
-0.007460114272
-0.01555325764
-0.004363834588
-0.01550249307
-0.001425535647
-0.01201779809
-0.004855511845
-0.0003089282439
0.003053734247
-0.0009555673892
0.007061614829
-0.001768489989
0.009455253399
-0.002639390503
0.0106633821
-0.003518261982
0.01105768196
-0.004389722552
0.01088334175
-0.005256719142
0.01027516517
-0.006129514451
0.009284069743
-0.007017707022
0.007905612565
-0.00792332656
0.006105005701
-0.008832213139
0.003836203195
-0.009704214425
0.001058001773
-0.01045072625
-0.002243482726
-0.01092411997
-0.00603091922
-0.01089502842
-0.01014974982
-0.0100648881
-0.01422096599
-0.00815730551
-0.01746084023
-0.005167631653
-0.01849216692
-0.001854349003
-0.01533108074
-0.006709860847
-0.0003552700435
0.003409004293
-0.000973333136
0.007679677929
-0.001646057391
0.01012797766
-0.002268710344
0.01128603505
-0.002816839966
0.01160581157
-0.00330369356
0.01137019534
-0.003759409954
0.01073088156
-0.004220924627
0.009745584421
-0.004726146792
0.008410834736
-0.005309762562
0.006688621476
-0.005996656495
0.004523097132
-0.00679179813
0.001853143412
-0.00766058545
-0.001374695402
-0.008503029258
-0.005188475409
-0.009113178084
-0.009539600987
-0.009142508029
-0.01419163604
-0.008128400642
-0.01847494761
-0.005711156568
-0.020909411
-0.002318284785
-0.01872395252
-0.009028145632
-0.0005003770164
0.003909381315
-0.001151296454
0.008330597377
-0.00167482099
0.01065150219
-0.001981640277
0.01159285433
-0.00209567238
0.01171984367
-0.002075735555
0.01135025851
-0.00198847705
0.01064362306
-0.001901151148
0.009658258518
-0.00187892695
0.008388610539
-0.00198597093
0.006795665456
-0.002282466766
0.004819592968
-0.002818755549
0.002389432197
-0.003622152011
-0.0005712989371
-0.004668842708
-0.004141784709
-0.0058346348
-0.008373808892
-0.006807663606
-0.01321860723
-0.007016668756
-0.01826594246
-0.005716400996
-0.02220967876
-0.002739567081
-0.02170078643
-0.01176771271
-0.0008308853638
0.004740266686
-0.001604832836
0.009104544859
-0.001950979336
0.01099764869
-0.001839382744
0.01148125773
-0.001385434763
0.01126589567
-0.000718131587
0.01068295532
4.821342622e-05
0.009877278035
0.0008164049215
0.008890067017
0.001495360881
0.007709654574
0.001998424423
0.00629260191
0.002238517804
0.004579499584
0.002128355168
0.002499594832
0.001583160312
-2.610408125e-05
0.0005450317367
-0.003103656132
-0.0009843144356
-0.006844462719
-0.00282840166
-0.01137452001
-0.004459125896
-0.01663521822
-0.004810489482
-0.02185831517
-0.002944290903
-0.02356698501
-0.01471200361
-0.001465682521
0.006205949213
-0.002379876639
0.01001873898
-0.002373444856
0.0109912169
-0.001603541846
0.01071135471
-0.0003496262546
0.01001198007
0.00116364276
0.0091696863
0.002771842276
0.008269078515
0.004349534413
0.007312374876
0.005791624034
0.006267564947
0.006998015267
0.005086210671
0.007865493658
0.003712021189
0.008282285682
0.002082802806
0.008123822594
0.0001323590069
0.00726449709
-0.002244330628
0.005585213336
-0.005165178964
0.003073873248
-0.008863179919
7.897206251e-05
-0.01364031704
-0.002445747296
-0.01933359581
-0.002601077993
-0.02341165431
-0.01731308161
-0.002365504002
0.008571453219
-0.002963808721
0.01061704371
-0.001922814029
0.009950222213
8.111542135e-05
0.008707425242
0.002534887323
0.007558208166
0.005140256011
0.006564317613
0.007719753945
0.005689580583
0.01015462194
0.004877506883
0.01234957394
0.004072612941
0.01421200274
0.003223781871
0.01564054063
0.002283483299
0.01651758937
0.00120575407
0.01669710002
-4.71516416e-05
0.01602712654
-0.001574357155
0.01430509029
-0.003443142708
0.01133283094
-0.005890920568
0.007055613839
-0.009363099936
0.002201623706
-0.01447960567
-0.001027320525
-0.02018271008
-0.01834040213
-0.002150342887
0.01072179611
-7.19946348e-05
0.008538695479
0.003741898426
0.006136329132
0.007719772843
0.004729550827
0.01156187107
0.003716109947
0.01514101067
0.002985178025
0.01839885633
0.002431734925
0.02130155574
0.001974807478
0.02381243395
0.001561734733
0.02587973509
0.001156480737
0.02743056925
0.0007326491405
0.02836472842
0.0002715948977
0.02857561766
-0.0002580408764
0.0278876654
-0.0008864049017
0.0260993414
-0.001654818702
0.02290826574
-0.002699844911
0.01790696689
-0.004361801085
0.01076690818
-0.007339546962
0.002912180382
-0.01232798228
-0.01542822175
0.01072179612
0.01926049159
0.02539682073
0.03012637156
0.03384248151
0.03682765955
0.03925939447
0.04123420195
0.04279593669
0.04395241742
0.04468506656
0.04495666146
0.04469862059
0.04381221569
0.04215739698
0.03945755207
0.03509575099
0.02775620403
0.01542822175
)
;

boundaryField
{
    movingWall
    {
        type            calculated;
        value           uniform 0;
    }
    fixedWalls
    {
        type            calculated;
        value           uniform 0;
    }
    frontAndBack
    {
        type            empty;
    }
}


// ************************************************************************* //
