/*--------------------------------*- C++ -*----------------------------------*\
  =========                 |
  \\      /  F ield         | OpenFOAM: The Open Source CFD Toolbox
   \\    /   O peration     | Website:  https://openfoam.org
    \\  /    A nd           | Version:  13
     \\/     M anipulation  |
\*---------------------------------------------------------------------------*/
FoamFile
{
    format      ascii;
    class       volVectorField;
    location    "46";
    object      U;
}
// * * * * * * * * * * * * * * * * * * * * * * * * * * * * * * * * * * * * * //

dimensions      [0 1 -1 0 0 0 0];

internalField   nonuniform List<vector> 
400
(
(1.100782151e-05 -3.783049711e-05 0)
(-0.0006660931424 0.0004130430295 -1.551400135e-23)
(-0.002185373611 0.0009203938556 0)
(-0.004047832126 0.001312781276 0)
(-0.005971868009 0.001535066049 6.845816028e-25)
(-0.007762783415 0.001569847752 4.150941245e-24)
(-0.009284545799 0.001423563156 -7.374166058e-24)
(-0.01043594221 0.001119722927 7.529955352e-24)
(-0.01113681512 0.0006960827981 -2.09533083e-25)
(-0.01132711201 0.0002030784704 -3.994571115e-24)
(-0.01097177286 -0.0003002325666 5.803539949e-24)
(-0.01007232787 -0.0007475158035 -5.929514771e-23)
(-0.008679879917 -0.001075562765 -6.552637909e-23)
(-0.0069028529 -0.001233044828 -7.784229514e-23)
(-0.004910738176 -0.001192638897 4.573535534e-24)
(-0.002927232248 -0.0009619204789 -4.137881972e-24)
(-0.001205299742 -0.0005912114557 -1.998726956e-22)
(-1.906921147e-05 -0.0001698826312 0)
(0.0005181533566 0.0001720859519 1.509513703e-25)
(0.0002227511642 0.0003059790698 -2.551790092e-24)
(-0.0002633618502 0.0008289718616 1.382895476e-25)
(-0.002703303795 0.003383842975 1.561198963e-23)
(-0.006907275684 0.005604502016 1.555508934e-25)
(-0.01195231944 0.007008208207 -8.496007059e-25)
(-0.01713504497 0.007553776861 1.162223616e-24)
(-0.02197535528 0.00729420057 1.306966716e-23)
(-0.02611076154 0.006321894839 1.387647362e-24)
(-0.0292656478 0.004754193415 -7.281695639e-24)
(-0.03122673073 0.002737151933 1.015236865e-23)
(-0.03184201094 0.0004524060835 4.509903379e-24)
(-0.03102761583 -0.001884144222 -6.318805496e-24)
(-0.0287931675 -0.004023028993 2.96172455e-24)
(-0.02527138443 -0.00570835417 3.89550721e-23)
(-0.02073194927 -0.006707409438 -1.954747687e-24)
(-0.01558962672 -0.006854140255 3.754435828e-24)
(-0.01038513451 -0.006097464586 -9.740819733e-23)
(-0.005730272873 -0.004546186958 9.637523078e-23)
(-0.00223336768 -0.002507419443 -3.961038225e-25)
(-0.0001817761035 -0.0005023723754 4.060936332e-25)
(8.343478236e-05 0.0006099260353 0)
(-0.0004188231334 0.002935080773 -2.910326196e-25)
(-0.004647874121 0.008804016616 1.701947508e-23)
(-0.01137195998 0.01324042519 -8.284570336e-24)
(-0.01932729119 0.01579204214 -2.075621318e-25)
(-0.0274741179 0.0165300016 2.039081235e-25)
(-0.03511778948 0.01564441819 6.796134773e-27)
(-0.04171344939 0.0133599773 -1.220155133e-24)
(-0.04683571828 0.009919771751 -4.551060793e-25)
(-0.05014989032 0.005602433174 -1.063055145e-23)
(-0.0514123202 0.0007444198099 0)
(-0.05047793378 -0.004241781367 0)
(-0.04733706394 -0.008887187753 2.670981193e-23)
(-0.04215928001 -0.01268176979 2.812993067e-23)
(-0.03531437486 -0.01513605181 -1.646143114e-24)
(-0.02738996306 -0.0158618955 4.845794007e-23)
(-0.01917005946 -0.01467334161 9.419127349e-23)
(-0.01156090815 -0.01169360378 3.975558265e-23)
(-0.005465412835 -0.007450743039 4.141514262e-25)
(-0.001451100481 -0.002936043342 1.073934968e-25)
(-9.072792927e-05 0.0002258774849 0)
(-0.0005024630979 0.006045351178 -4.248771287e-23)
(-0.006402739998 0.01637075768 -1.69217118e-23)
(-0.01553502487 0.02355933788 8.211412427e-24)
(-0.02627912125 0.02744162789 0)
(-0.03728746859 0.02832102321 0)
(-0.04769037618 0.0265877267 0)
(-0.05679663202 0.02263120462 -4.465224606e-26)
(-0.06405384233 0.01683609388 -2.137022685e-24)
(-0.06901081724 0.009622184253 0)
(-0.07130828092 0.001491049926 1.635372034e-24)
(-0.07070853714 -0.006936504625 2.802727773e-25)
(-0.06713039586 -0.01493018971 -2.810575345e-25)
(-0.06069905747 -0.02166728311 0)
(-0.05180750636 -0.02631605899 4.133211011e-23)
(-0.04114991747 -0.02816070983 -4.681508758e-23)
(-0.02971970287 -0.026773723 -2.761864085e-23)
(-0.01873716755 -0.02221530545 -3.960702494e-23)
(-0.009488029303 -0.01521922185 7.79588142e-25)
(-0.002976880942 -0.007298194373 9.790462952e-23)
(-0.0002318803974 -0.0008661673865 0)
(-0.0005316131027 0.01009501679 4.269431617e-23)
(-0.007983593061 0.02595219757 4.785488544e-25)
(-0.01939687567 0.03642883114 -4.67618955e-25)
(-0.03282382583 0.04185521003 0)
(-0.04664689161 0.04289485488 7.783002532e-25)
(-0.05985229853 0.04020074245 -7.675088371e-25)
(-0.07163291602 0.03434741828 3.672314616e-23)
(-0.08132751511 0.02585664193 1.848243555e-23)
(-0.08836601362 0.01527298401 6.238940258e-24)
(-0.09225469817 0.003246147092 -1.637277265e-24)
(-0.09260380026 -0.009407832992 0)
(-0.08917555695 -0.02167478139 4.370548707e-25)
(-0.08195979383 -0.03236745228 1.008987071e-23)
(-0.07126885529 -0.0402125034 -4.34923925e-23)
(-0.05782018881 -0.04402046534 1.932857378e-24)
(-0.04278583023 -0.04294829528 4.217128182e-23)
(-0.02775450395 -0.03683347046 -3.841544561e-25)
(-0.01455062383 -0.02652721032 0)
(-0.004859462987 -0.01408454491 5.436547952e-23)
(-0.0003641487266 -0.002846952965 -2.565087721e-22)
(-0.00052722095 0.01499927789 9.841594851e-23)
(-0.00937792553 0.0373902246 -4.907822577e-25)
(-0.02288182858 0.05170223281 0)
(-0.0388304367 0.05894183451 0)
(-0.05538656963 0.0602557494 -8.732145969e-23)
(-0.07142876892 0.05661901324 -8.499113169e-23)
(-0.08606654401 0.0488016896 -4.067572239e-23)
(-0.09855086293 0.0374398063 -1.504383455e-23)
(-0.1081945345 0.02315984016 -5.368970343e-24)
(-0.1143444765 0.006709679266 -8.175017399e-24)
(-0.1164046242 -0.01093292202 6.601143347e-24)
(-0.1138937428 -0.02848945144 8.826736099e-24)
(-0.1065487 -0.04437046412 -1.892316635e-23)
(-0.09446804177 -0.05675333963 4.607962986e-24)
(-0.07826856982 -0.0637829888 0)
(-0.05922895494 -0.0639349562 -1.572811258e-23)
(-0.0393398195 -0.05653816433 -2.43078072e-26)
(-0.0211418885 -0.04235809208 0)
(-0.007318703019 -0.02398229442 -1.520657599e-22)
(-0.0005216166339 -0.005925544867 6.056289842e-22)
(-0.0004990821647 0.02064574643 -9.774546124e-23)
(-0.01052951019 0.0504543834 2.831990046e-22)
(-0.0258295753 0.06912511965 1.526863991e-22)
(-0.04402138453 0.07849258234 3.61929212e-24)
(-0.06310739368 0.08029476749 -7.319357794e-23)
(-0.08190405301 0.0758804321 9.043570941e-23)
(-0.09947763906 0.06621690913 -3.590226058e-24)
(-0.1150227401 0.05201695193 -1.729176134e-24)
(-0.1277519207 0.03392358544 2.524169303e-24)
(-0.1368472631 0.01270233189 7.382649895e-24)
(-0.1414710552 -0.01058782374 -6.500889511e-24)
(-0.1408248209 -0.03446024469 -9.788163075e-24)
(-0.1342745991 -0.05692771865 -3.261730476e-23)
(-0.1215450257 -0.07553316423 -3.66153779e-23)
(-0.1029672669 -0.08754260791 5.646058539e-25)
(-0.07976369987 -0.09039209879 0)
(-0.05426682539 -0.08244513911 0)
(-0.02987160971 -0.06397736962 -2.906080576e-24)
(-0.01066285157 -0.0379879477 2.970530159e-24)
(-0.0007350936812 -0.010500895 1.027872675e-22)
(-0.0004479166643 0.02687251225 0)
(-0.0113492328 0.06480757749 2.001983442e-22)
(-0.02801599763 0.08829617526 8.96205336e-23)
(-0.04799857469 0.1001234977 0)
(-0.06920602161 0.1027076585 1.569888077e-22)
(-0.09044373404 0.09781578923 0)
(-0.1107831706 0.08661103287 -1.428392068e-22)
(-0.1294093793 0.06983950542 6.515579457e-24)
(-0.1454771669 0.04808232306 0)
(-0.1580351849 0.02201755611 0)
(-0.1660133492 -0.007334440026 -1.374414261e-24)
(-0.1682671593 -0.03838839824 -9.316802691e-25)
(-0.163706473 -0.06883976009 1.491983974e-22)
(-0.151520879 -0.09558275957 -4.70462946e-23)
(-0.1315134576 -0.1148298681 -2.560985172e-24)
(-0.1045596091 -0.1225703434 1.534744911e-24)
(-0.07309349987 -0.1155517986 -1.558954409e-24)
(-0.04135021537 -0.09283115718 0)
(-0.01525230289 -0.05740767724 3.203821755e-24)
(-0.001044309056 -0.01714714502 -1.012916629e-21)
(-0.0003744665884 0.03346304586 0)
(-0.01175006099 0.07998918965 -1.128295555e-22)
(-0.02920708 0.1086390975 -6.191160802e-22)
(-0.05031745127 0.1232234025 -3.755312108e-22)
(-0.07296317578 0.1269097067 0)
(-0.09598960368 0.1219255669 4.119463089e-22)
(-0.1185273506 0.1096348667 1.260928294e-22)
(-0.1398146449 0.09078246042 -5.581847004e-24)
(-0.1590221585 0.0658139327 5.554219861e-24)
(-0.1751461042 0.03520881144 0)
(-0.1869560025 -0.0001967472767 2.912134726e-23)
(-0.1930172688 -0.03889754413 4.695847298e-24)
(-0.1917809951 -0.07843888668 -1.076811182e-22)
(-0.181787447 -0.1151865398 8.004233912e-23)
(-0.1620570463 -0.1442599489 -2.419751537e-22)
(-0.1327062022 -0.1598548655 0)
(-0.09577888296 -0.1563112911 0)
(-0.05601633127 -0.1302981103 0)
(-0.02147859157 -0.08381135222 0)
(-0.001500384585 -0.02665516329 5.57212915e-22)
(-0.0002873898919 0.0401607782 0)
(-0.01169359633 0.09543611739 -3.493022913e-22)
(-0.02924438328 0.1294073659 8.932812315e-22)
(-0.0506094734 0.1469299204 3.617184237e-22)
(-0.07370082712 0.1519748707 0)
(-0.09745151209 0.1472757991 -3.862560494e-22)
(-0.1211069848 0.1344191972 -3.174434618e-23)
(-0.1440324801 0.1141393334 3.333109029e-22)
(-0.1655143255 0.08670006705 1.769476874e-22)
(-0.1846248545 0.05229123533 -4.060156495e-23)
(-0.2001325836 0.01141716178 1.65682225e-23)
(-0.2104622468 -0.03471424217 -8.265258514e-24)
(-0.2137208553 -0.0837656374 3.371861936e-22)
(-0.2078215521 -0.1318756368 0)
(-0.1908238555 -0.1732756161 2.420920566e-22)
(-0.1616335752 -0.2002593421 5.774794679e-24)
(-0.1211662701 -0.2040121734 -5.860913949e-24)
(-0.07384989857 -0.1772119977 1.548454348e-22)
(-0.02971786848 -0.118864234 -5.435479963e-24)
(-0.002179545136 -0.0400539878 0)
(-0.0002117198215 0.04671640112 0)
(-0.01125001081 0.1105498148 0)
(-0.02815624452 0.1497355034 -5.0227634e-22)
(-0.048744793 0.1701517639 -1.880999874e-23)
(-0.07100086632 0.1766257182 2.038380432e-23)
(-0.09399451489 0.1724526542 -2.014312909e-23)
(-0.1171434299 0.159487101 -2.31688582e-23)
(-0.1400179504 0.1384805096 -3.029827238e-22)
(-0.1621328892 0.1095160722 6.698613332e-23)
(-0.1827959038 0.07245186975 4.513182964e-23)
(-0.2009835559 0.02734928811 -4.577725512e-23)
(-0.2152270266 -0.02508697833 0)
(-0.2235562216 -0.08298351476 -7.839698121e-23)
(-0.2234632202 -0.1427257348 0)
(-0.2120679439 -0.1981820903 -3.739566177e-22)
(-0.1867434557 -0.2400773722 5.244961484e-22)
(-0.1464438311 -0.256077344 0)
(-0.09394567777 -0.233120953 -1.494000242e-22)
(-0.04022001015 -0.1639613677 1.93755729e-22)
(-0.003201100278 -0.05861063199 -3.411536871e-22)
(-0.0002015409337 0.05297585203 0)
(-0.01067261875 0.124817241 9.182878645e-22)
(-0.02628446652 0.1687424611 -2.440687859e-23)
(-0.0450110777 0.1916455174 9.193346176e-22)
(-0.0649459745 0.1992921088 -2.512088475e-23)
(-0.08536628483 0.1956104348 2.838846472e-23)
(-0.1059305643 0.1827886866 -2.812932511e-23)
(-0.1264924181 0.1616583522 -1.660919294e-23)
(-0.146899684 0.1321762304 -5.260233227e-22)
(-0.1668458148 0.09389646604 -8.906635383e-24)
(-0.1857303015 0.04640576221 9.6602032e-24)
(-0.2024781677 -0.01023784858 3.313079946e-22)
(-0.2154154607 -0.07499820479 -5.820744415e-22)
(-0.2220209712 -0.1450311857 0)
(-0.2188032102 -0.2146760641 8.887331655e-22)
(-0.2016257526 -0.274001645 -4.940893676e-22)
(-0.1668639195 -0.3075811986 -1.572225455e-23)
(-0.1140220097 -0.2953811939 0)
(-0.05288482036 -0.2195802598 -1.890190874e-22)
(-0.004749188175 -0.08377278025 3.360594527e-22)
(-0.0003641986287 0.05902317841 1.551011825e-23)
(-0.01049573949 0.1379881521 -8.764205895e-22)
(-0.02441389506 0.1856804129 -1.15706004e-21)
(-0.04026724362 0.2101384783 -8.628994639e-22)
(-0.05630729511 0.2182348943 0)
(-0.07214856431 0.2146190299 3.513807844e-23)
(-0.08779221484 0.2018791979 -7.294871706e-23)
(-0.1034562776 0.1810005625 5.867888618e-23)
(-0.1193983857 0.1518997248 3.021369001e-22)
(-0.135793153 0.1139150568 -1.128196478e-23)
(-0.1526082305 0.06621424877 0)
(-0.1694521361 0.008177202334 -3.603932231e-22)
(-0.1852760587 -0.06015987828 7.515672949e-22)
(-0.198044851 -0.1372747027 8.831709186e-22)
(-0.2043546259 -0.2189261906 -5.2966316e-22)
(-0.199097761 -0.2959712934 5.162693828e-22)
(-0.176060533 -0.3514072612 1.078235186e-23)
(-0.1300890633 -0.3584150807 -1.095550263e-23)
(-0.06688803318 -0.284327653 -8.215260697e-23)
(-0.007083319953 -0.1169964425 0)
(-0.0009095776939 0.06540041591 -1.911488408e-23)
(-0.01167591717 0.1502816426 -1.326966547e-21)
(-0.02388882023 0.2000659582 1.094238375e-21)
(-0.03601340319 0.2244216993 6.734934651e-22)
(-0.04657308591 0.2316588272 6.014635719e-22)
(-0.05577038311 0.2272393723 6.643961091e-22)
(-0.06411245526 0.2141774899 -4.45868017e-23)
(-0.07227561393 0.1936494397 -3.461338964e-22)
(-0.08096972676 0.1656028324 2.152163493e-22)
(-0.09087192037 0.1292707354 0)
(-0.1025547425 0.08353082397 0)
(-0.1163622131 0.02720010614 2.655398061e-22)
(-0.1321589537 -0.04062006136 8.194325169e-23)
(-0.1489252299 -0.120012832 -2.821625588e-22)
(-0.1641284267 -0.2089300702 -5.411274439e-23)
(-0.1727877609 -0.3006992519 1.301952073e-22)
(-0.1670311299 -0.3793329116 -3.400508468e-22)
(-0.1365292437 -0.4136451984 -1.593815614e-23)
(-0.08018250138 -0.3538326217 8.204033452e-23)
(-0.01050762294 -0.1594130576 -6.032155318e-22)
(-0.002260498455 0.07348883535 0)
(-0.01580355646 0.1626521782 2.145876047e-21)
(-0.02665042531 0.2117904754 0)
(-0.03422339508 0.2333947292 -1.351808792e-21)
(-0.03759398354 0.2377766847 6.184057297e-23)
(-0.03799685076 0.2312553543 -6.193098461e-22)
(-0.03668265701 0.2171899027 -4.75628675e-22)
(-0.03489036114 0.1968934504 8.301258879e-22)
(-0.0337883767 0.1703342389 -1.885698964e-22)
(-0.03449876195 0.1367221076 0)
(-0.03811572481 0.09479673584 0)
(-0.04564992222 0.04304286522 2.410615275e-23)
(-0.05790804125 -0.02013781297 -6.007200997e-22)
(-0.07514598404 -0.09620650274 -4.309568867e-22)
(-0.0964517488 -0.1855556178 4.637864401e-22)
(-0.1183462609 -0.2853567777 -6.488739153e-22)
(-0.1332715377 -0.3838386541 9.119949271e-23)
(-0.1265350985 -0.4504358721 2.937299015e-23)
(-0.08899154075 -0.4198536383 5.660442408e-22)
(-0.01526917931 -0.2111719736 6.020788069e-22)
(-0.005180899536 0.08598045956 0)
(-0.02525550694 0.1766291196 1.465579292e-22)
(-0.03483407931 0.2205961562 -4.917147172e-23)
(-0.03640013775 0.235485936 7.642934838e-22)
(-0.03018482917 0.2343406764 -7.005381835e-22)
(-0.01916579271 0.2241603894 4.7464831e-23)
(-0.005615148291 0.2083525854 -1.018610274e-22)
(0.008569610072 0.1881241095 -3.389890001e-22)
(0.02179886422 0.1633911274 2.062823473e-22)
(0.03262781713 0.1333242733 0)
(0.03958458781 0.09664086163 0)
(0.04117013459 0.05174056406 -2.902668623e-22)
(0.03578484003 -0.00325539824 0)
(0.02198184845 -0.07058360881 -5.51218878e-22)
(-0.001264844608 -0.152573551 -1.492377388e-23)
(-0.03310469758 -0.250594985 2.559742424e-23)
(-0.06909235721 -0.3599341519 2.203145037e-22)
(-0.09227826941 -0.457542453 4.788074969e-24)
(-0.08718089898 -0.4698129418 -5.789410748e-22)
(-0.02103127146 -0.2698972299 0)
(-0.01111631554 0.1085974973 0)
(-0.04248901851 0.1947151676 -8.848482861e-22)
(-0.04795528875 0.2258195511 -5.41104172e-22)
(-0.0391953586 0.2282135558 4.543818807e-22)
(-0.01877830196 0.2182328139 -1.709983606e-24)
(0.007664315012 0.202822036 -4.561051983e-23)
(0.03667993529 0.1847619775 5.696684519e-22)
(0.06582998745 0.1647118221 -2.766891422e-23)
(0.09327131076 0.1423128182 -2.069782356e-22)
(0.1173891626 0.1166274941 3.14221452e-23)
(0.1365461704 0.08641143891 -3.425918194e-23)
(0.1489669282 0.05017669017 -3.690595169e-23)
(0.1525275793 0.00615916674 3.205634497e-22)
(0.1449367041 -0.04796127045 6.119608139e-22)
(0.1235159799 -0.115305291 -5.101173424e-22)
(0.08633533495 -0.200419565 -1.616059614e-22)
(0.03199089341 -0.3067806591 1.531306702e-22)
(-0.02362123121 -0.4239837146 7.293651665e-23)
(-0.0649241304 -0.487161279 1.913291499e-21)
(-0.02509971702 -0.3291544745 2.954991334e-21)
(-0.02004680485 0.1460727401 -4.390208765e-23)
(-0.06416406259 0.2112955856 4.417381522e-23)
(-0.0507023054 0.2177300476 1.0001889e-21)
(-0.0193409729 0.2014679984 -8.270576357e-24)
(0.02414465001 0.1809076182 0)
(0.07154122141 0.1606933353 4.3637245e-23)
(0.1190703416 0.1416495499 -2.273853038e-22)
(0.1644767344 0.1233181827 -9.027961478e-23)
(0.2062251172 0.1048117298 3.680736218e-23)
(0.2429643037 0.08507140109 -1.701655488e-23)
(0.2732207592 0.06296147683 3.429971503e-23)
(0.2952536121 0.03726293818 -6.592683546e-23)
(0.3066971071 0.006535068068 -9.303907976e-23)
(0.3049738322 -0.03087770058 1.517044799e-22)
(0.2863936256 -0.07786290979 0)
(0.247056809 -0.139930037 1.505612794e-22)
(0.181092224 -0.2266299752 2.560013787e-22)
(0.09604450273 -0.3443894948 0)
(-0.006697615759 -0.4552210219 -3.675634637e-21)
(-0.019224082 -0.3777537589 -2.89262081e-21)
(-0.0259195134 0.2276828797 -9.514205136e-22)
(-0.03998324682 0.2238216525 -1.388976765e-22)
(0.03656136878 0.181058536 -2.335582671e-22)
(0.109050305 0.1451059091 -1.193742675e-22)
(0.1817191198 0.1172445496 -4.295828501e-23)
(0.2490090739 0.09627907662 9.78318926e-23)
(0.3100336712 0.08002510456 -1.408593245e-22)
(0.3646209344 0.06656815375 1.297176053e-22)
(0.4126252507 0.05449178921 -8.620124875e-23)
(0.4536250313 0.04270894942 1.132188224e-25)
(0.4867878737 0.03032298422 1.527742405e-23)
(0.5107451376 0.01652901851 7.997208204e-23)
(0.5236597466 0.0005365142382 -1.811124608e-22)
(0.5231798022 -0.01863373264 -1.617146931e-22)
(0.5052323426 -0.04286478969 -4.262958351e-23)
(0.4658715086 -0.07633231193 0)
(0.3952696501 -0.1286089384 -1.846476796e-22)
(0.291607105 -0.2208468098 8.148762795e-22)
(0.1197455107 -0.3525016903 1.631601485e-21)
(0.02670547261 -0.3775497979 2.172655864e-21)
(0.214289447 0.1347447205 9.864990186e-22)
(0.2776311185 0.09870503548 0)
(0.4316592289 0.0581041485 -2.594321672e-22)
(0.5304749347 0.0384626495 -1.741667525e-22)
(0.6016965754 0.02623419111 0)
(0.6571198964 0.01831923475 -6.009097265e-23)
(0.7015213609 0.0131360085 6.378006771e-23)
(0.7376042508 0.009542126381 -1.800157824e-23)
(0.7669368424 0.006804463611 2.885976087e-23)
(0.7902106692 0.004464743854 2.315034455e-23)
(0.8074555016 0.002221319767 0)
(0.8182621359 -0.000150075086 -2.87303421e-23)
(0.8216499718 -0.002723848388 0)
(0.8162394198 -0.005712668721 2.73815307e-23)
(0.7991333149 -0.009611382861 1.421693794e-23)
(0.7679986345 -0.01500255106 -5.799401902e-23)
(0.7106555755 -0.02502519951 -2.535660567e-22)
(0.623518398 -0.04204285405 -6.918101264e-22)
(0.423009102 -0.09182968079 0)
(0.2705674689 -0.1524021841 -2.11948373e-21)
)
;

boundaryField
{
    movingWall
    {
        type            fixedValue;
        value           uniform (1 0 0);
    }
    fixedWalls
    {
        type            fixedValue;
        value           uniform (0 0 0);
    }
    frontAndBack
    {
        type            empty;
    }
}


// ************************************************************************* //
