/*--------------------------------*- C++ -*----------------------------------*\
  =========                 |
  \\      /  F ield         | OpenFOAM: The Open Source CFD Toolbox
   \\    /   O peration     | Website:  https://openfoam.org
    \\  /    A nd           | Version:  13
     \\/     M anipulation  |
\*---------------------------------------------------------------------------*/
FoamFile
{
    format      ascii;
    class       vectorField;
    location    "14.29";
    object      U_all;
}
// * * * * * * * * * * * * * * * * * * * * * * * * * * * * * * * * * * * * * //


400
(
(1.037125677e-05 -3.685934785e-05 0)
(-0.0006647628384 0.0004120338013 -1.534515215e-23)
(-0.002177279958 0.0009167594246 0)
(-0.004031081118 0.001307064223 0)
(-0.005946114748 0.001528165847 6.720880591e-25)
(-0.007728952089 0.001562764658 4.141334578e-24)
(-0.009244430378 0.001417248011 -6.929522654e-24)
(-0.01039194101 0.001114956476 8.008085766e-24)
(-0.01109172033 0.0006933772806 -2.137233347e-25)
(-0.0112838531 0.0002025882029 -4.060988344e-24)
(-0.01093321112 -0.0002986825995 5.880700212e-24)
(-0.01004094734 -0.000744490243 -5.99622968e-23)
(-0.008657401034 -0.001071874729 -6.629645604e-23)
(-0.006889980595 -0.00122963547 -7.870514024e-23)
(-0.004906952965 -0.001190381846 4.634369846e-24)
(-0.002930730414 -0.0009614178518 -4.20843992e-24)
(-0.001213300495 -0.0005925884994 -2.051223167e-22)
(-2.774037453e-05 -0.0001726312848 0)
(0.0005119486838 0.0001687448257 1.768001357e-25)
(0.0002211632146 0.0003037794141 -5.95739557e-24)
(-0.0002622179204 0.0008268068917 1.378317436e-25)
(-0.002690580139 0.003369053496 1.544115634e-23)
(-0.006873080851 0.005577645308 1.530605836e-25)
(-0.01189226133 0.006973802627 -8.336848699e-25)
(-0.01704892244 0.00751689797 1.13640599e-24)
(-0.02186606966 0.007259614588 1.267365416e-23)
(-0.02598350084 0.006293647399 1.794279226e-24)
(-0.02912717257 0.004735341146 -7.748530377e-24)
(-0.03108475252 0.002729507135 1.041356063e-23)
(-0.03170444456 0.0004562836167 4.586407632e-24)
(-0.03090202899 -0.001869408296 -6.40304932e-24)
(-0.02868607352 -0.00400005758 2.918602784e-24)
(-0.02518735194 -0.005680841714 3.931872153e-23)
(-0.02067310649 -0.006679725113 -1.986342479e-24)
(-0.01555522625 -0.006830673569 3.822649378e-24)
(-0.01037148128 -0.0060818154 -1.000753335e-22)
(-0.005731173998 -0.00454031585 9.916862353e-23)
(-0.002240920604 -0.00251072479 -4.473468615e-25)
(-0.0001887174951 -0.0005114659989 4.586291743e-25)
(8.240789215e-05 0.0006027009902 0)
(-0.0004163243596 0.002921850803 -2.891335471e-25)
(-0.004622264014 0.008759690018 1.686169561e-23)
(-0.01130941509 0.01317169996 -8.214536084e-24)
(-0.01922188828 0.01571007654 -2.017466233e-25)
(-0.02732634874 0.01644602822 1.981956175e-25)
(-0.03493259399 0.01556840441 1.798713297e-26)
(-0.04149909891 0.01330003871 -1.612558447e-24)
(-0.04660276745 0.009881824494 -4.824729083e-25)
(-0.04991025447 0.00558990518 -1.090429778e-23)
(-0.05117760498 0.0007580524398 0)
(-0.0502595955 -0.004204651692 0)
(-0.04714545609 -0.008831453954 2.710943313e-23)
(-0.04200156453 -0.01261472935 2.855229733e-23)
(-0.03519451271 -0.01506654303 -1.680565611e-24)
(-0.02730807588 -0.01579912896 4.972938272e-23)
(-0.01912224371 -0.01462541493 9.678064454e-23)
(-0.01153965497 -0.01166579959 4.284294814e-23)
(-0.005460621302 -0.007443740948 5.18374877e-25)
(-0.001453126425 -0.002944411599 5.213614109e-26)
(-9.074937807e-05 0.0002153148561 0)
(-0.000499127941 0.006014277352 -4.203256191e-23)
(-0.006365447709 0.01628319811 -1.676207354e-23)
(-0.01544624381 0.02343268785 8.140199636e-24)
(-0.02613173117 0.02729619084 0)
(-0.03708277638 0.02817569859 0)
(-0.04743512598 0.02645861234 0)
(-0.05650156771 0.02253102669 -5.990367699e-26)
(-0.06373234407 0.01677388565 -1.812419356e-24)
(-0.06867767172 0.009603009551 0)
(-0.0709791403 0.001515823352 1.739944782e-24)
(-0.07039792545 -0.006871905255 2.871425787e-25)
(-0.06685076653 -0.01483330614 -2.879465913e-25)
(-0.060460657 -0.02154936995 0)
(-0.05161693364 -0.02619095943 4.257768384e-23)
(-0.04100944444 -0.0280432921 -4.80523024e-23)
(-0.02962685024 -0.0266777605 -2.919711386e-23)
(-0.01868481199 -0.02215084212 -4.274726775e-23)
(-0.00946523952 -0.01518964762 7.754265087e-25)
(-0.002971835736 -0.0072975552 9.382418231e-23)
(-0.0002312442774 -0.0008764173198 0)
(-0.0005280945253 0.01004017793 4.223728818e-23)
(-0.007937463375 0.02580987568 4.787412483e-25)
(-0.01928750795 0.03623107008 -4.678077888e-25)
(-0.03264303677 0.04163351976 0)
(-0.046396509 0.04267682513 7.674060851e-25)
(-0.05954028823 0.04000904719 -7.567660945e-25)
(-0.07127163747 0.03419953233 3.605807232e-23)
(-0.08093216817 0.02576470735 1.774134459e-23)
(-0.08795334281 0.01524361971 5.977829406e-24)
(-0.09184208637 0.003280264878 -1.741971921e-24)
(-0.09220797785 -0.009314614814 0)
(-0.08881171416 -0.02153267009 4.555566626e-25)
(-0.08164091738 -0.03219140515 1.081152132e-23)
(-0.07100464973 -0.04002125939 -4.482276237e-23)
(-0.05761613629 -0.04383485452 2.024455601e-24)
(-0.04264230064 -0.04278867854 4.542373476e-23)
(-0.02766619736 -0.03671621368 -4.374955953e-25)
(-0.01450673669 -0.02646042686 0)
(-0.004845804173 -0.01406395064 5.398054429e-23)
(-0.0003626554818 -0.002852147474 -2.515841229e-22)
(-0.0005240974186 0.01491667858 9.824611041e-23)
(-0.009327043042 0.03718555933 -4.906921885e-25)
(-0.02276053158 0.05142476537 0)
(-0.0386295821 0.05863564108 0)
(-0.05510796385 0.05995763789 -8.671113132e-23)
(-0.07108075903 0.05635829273 -8.420567777e-23)
(-0.08566202066 0.04860044452 -3.993962833e-23)
(-0.09810557856 0.03731315476 -1.4630918e-23)
(-0.1077258241 0.02311603709 -5.136343054e-24)
(-0.1138703418 0.006750154556 -7.976711853e-24)
(-0.1159428241 -0.01081330654 6.376936085e-24)
(-0.113461069 -0.02830246272 8.392982922e-24)
(-0.1061603765 -0.04413376679 -1.870942425e-23)
(-0.09413686683 -0.05648975556 2.742199449e-24)
(-0.07800379365 -0.06351896756 0)
(-0.05903490839 -0.06369794306 -1.750457339e-23)
(-0.03921445873 -0.05635243666 3.557699431e-26)
(-0.02107582224 -0.04223908233 0)
(-0.007296011314 -0.02393050878 -1.475565e-22)
(-0.000519295904 -0.00592144705 5.95219379e-22)
(-0.0004968417104 0.02053396881 -9.757602504e-23)
(-0.01047892856 0.0501849973 2.821109781e-22)
(-0.02570745788 0.06876539561 1.520358577e-22)
(-0.04381777113 0.07809954782 3.597985299e-24)
(-0.06282351244 0.07991442557 -7.278807771e-23)
(-0.08154777776 0.07554843559 8.9592267e-23)
(-0.09906134631 0.06595954934 -3.555630792e-24)
(-0.114561542 0.05185196043 -1.704314439e-24)
(-0.1272624057 0.0338606661 2.48548947e-24)
(-0.1363466468 0.01274354006 7.19802422e-24)
(-0.1409766307 -0.01044770452 -6.287805339e-24)
(-0.1403534181 -0.03423373233 -9.310136472e-24)
(-0.1338422423 -0.05663390765 -3.239680842e-23)
(-0.1211665332 -0.07519751342 -3.340138847e-23)
(-0.1026552141 -0.08719596854 4.985887672e-25)
(-0.07952682899 -0.09006860093 0)
(-0.05410772614 -0.08217802028 0)
(-0.02978420039 -0.0637921177 -2.828322194e-24)
(-0.01063110879 -0.03789367274 2.891047358e-24)
(-0.0007320570423 -0.01048263015 1.022285232e-22)
(-0.0004469744475 0.02673325216 0)
(-0.01130461191 0.0644772 1.992590954e-22)
(-0.02790571403 0.08785875075 8.920011156e-23)
(-0.04781216749 0.09964830228 0)
(-0.06894372514 0.1022493524 1.559937164e-22)
(-0.0901122738 0.09741582636 0)
(-0.1103936023 0.08629933582 -1.416728947e-22)
(-0.1289752456 0.06963586526 6.45350004e-24)
(-0.1450131853 0.04799744589 0)
(-0.1575563998 0.0220538605 0)
(-0.1655349213 -0.007182191542 -1.352305644e-24)
(-0.1678037935 -0.0381323036 -9.093435457e-25)
(-0.1632724965 -0.06849920286 1.462546474e-22)
(-0.1511307792 -0.0951839211 -4.674571514e-23)
(-0.1311812972 -0.1144057304 -2.47564573e-24)
(-0.1042978208 -0.1221598349 1.454651465e-24)
(-0.07291019075 -0.1151967403 -1.477597682e-24)
(-0.04124503218 -0.09256920072 0)
(-0.01521209871 -0.05726087641 3.156492247e-24)
(-0.001040569885 -0.0171099451 -1.00027345e-21)
(-0.0003751342722 0.03330129977 0)
(-0.01171706023 0.07960803717 -1.123794766e-22)
(-0.0291215335 0.1081361036 -6.163937648e-22)
(-0.05016892254 0.1226783335 -3.737141205e-22)
(-0.07275071771 0.1263849128 0)
(-0.0957183986 0.1214676197 4.093373983e-22)
(-0.1182066731 0.1092766627 1.250621508e-22)
(-0.1394559373 0.09054513338 -5.532046895e-24)
(-0.1586375704 0.06570842608 5.50466637e-24)
(-0.1747475048 0.03523723069 0)
(-0.1865541573 -3.998899171e-05 2.884744453e-23)
(-0.1926224306 -0.03862452243 4.635852059e-24)
(-0.1914033264 -0.0780682315 -1.059551679e-22)
(-0.1814374994 -0.1147430421 7.843939325e-23)
(-0.1617470288 -0.1437755065 -2.381390113e-22)
(-0.1324498473 -0.1593694832 0)
(-0.0955893577 -0.1558725852 0)
(-0.05590114837 -0.1299560681 0)
(-0.02143167007 -0.08360506563 0)
(-0.001495963721 -0.02659471075 5.506644706e-22)
(-0.0002898162734 0.03998462155 0)
(-0.01167710667 0.09502051882 -3.478157645e-22)
(-0.02919509622 0.1288581691 8.894521091e-22)
(-0.05051766622 0.1463346657 3.599641932e-22)
(-0.0735643739 0.151402273 0)
(-0.09727384655 0.1467768019 -3.838195496e-22)
(-0.1208953498 0.1340290165 -3.153160833e-23)
(-0.143795943 0.1138796363 3.310954201e-22)
(-0.1652620246 0.08658096001 1.757137575e-22)
(-0.1843646676 0.05231327464 -4.031227065e-23)
(-0.1998703111 0.01157324242 1.650355767e-23)
(-0.2102017574 -0.03443732692 -8.188309894e-24)
(-0.2134648527 -0.08338561195 3.3443466e-22)
(-0.2075733158 -0.1314143553 0)
(-0.190589715 -0.1727604927 2.382540532e-22)
(-0.1614246081 -0.1997263366 5.660109964e-24)
(-0.1209980981 -0.203509074 -5.744519241e-24)
(-0.07373823282 -0.1767978274 1.512428657e-22)
(-0.02966790562 -0.1185972548 -5.329259496e-24)
(-0.002174539726 -0.03996717047 0)
(-0.0002158481741 0.04653630098 0)
(-0.01125339182 0.1101210093 0)
(-0.02815166916 0.1491654351 -5.001629017e-22)
(-0.0487239966 0.169532193 -1.872974621e-23)
(-0.07096059963 0.1760300394 2.02788718e-23)
(-0.09393621718 0.1719353727 -2.003943517e-23)
(-0.1170719688 0.1590851586 -2.302874998e-23)
(-0.139939729 0.1382153674 -3.009533502e-22)
(-0.1620538085 0.1093958479 6.679355359e-23)
(-0.1827196275 0.0724740483 4.48067122e-23)
(-0.2009104219 0.02750344941 -4.543796934e-23)
(-0.2151540951 -0.02481618405 0)
(-0.2234778134 -0.08261462105 -7.723793398e-23)
(-0.2233731705 -0.1422771915 0)
(-0.2119633901 -0.1976743869 -3.711751527e-22)
(-0.1866283401 -0.2395373256 5.196285383e-22)
(-0.1463315006 -0.2555453527 0)
(-0.09385704982 -0.2326575166 -1.459043233e-22)
(-0.04017335677 -0.1636414932 1.901462974e-22)
(-0.003195778648 -0.05849673769 -3.375609409e-22)
(-0.0002071168715 0.05280358361 0)
(-0.01069715162 0.1243994353 9.150170966e-22)
(-0.02632862883 0.1681806629 -2.431481759e-23)
(-0.04506872089 0.1910314462 9.158816708e-22)
(-0.06501266679 0.198701693 -2.501572751e-23)
(-0.08544091003 0.1951007327 2.82489344e-23)
(-0.1060147735 0.1823978107 -2.799106807e-23)
(-0.1265891982 0.161407103 -1.65207576e-23)
(-0.1470112058 0.1320699124 -5.232512224e-22)
(-0.1669714479 0.09392841404 -8.858912168e-24)
(-0.1858654553 0.04656061393 9.609405175e-24)
(-0.2026150217 -0.0099800346 3.298316496e-22)
(-0.2155412073 -0.07465628698 -5.790877024e-22)
(-0.2221202717 -0.1446223029 0)
(-0.2188636032 -0.2142137394 8.834037693e-22)
(-0.2016411892 -0.2735006492 -4.895148409e-22)
(-0.1668402268 -0.3070675427 -1.557699011e-23)
(-0.1139789709 -0.2949064184 0)
(-0.05285059229 -0.219226972 -1.854705116e-22)
(-0.00474411801 -0.08363501143 3.325291481e-22)
(-0.0003708370454 0.05887052479 1.545607305e-23)
(-0.01054044294 0.1376060909 -8.732997336e-22)
(-0.02450571841 0.185157035 -1.153429247e-21)
(-0.04040264645 0.2095606871 -8.596601689e-22)
(-0.05648047008 0.217678406 0)
(-0.07235493614 0.2141420211 3.498989359e-23)
(-0.08802876048 0.2015203094 -7.263454534e-23)
(-0.1037212595 0.1807800392 5.84203867e-23)
(-0.1196893715 0.1518198611 3.006701702e-22)
(-0.1361052413 0.1139652602 -1.123266992e-23)
(-0.1529336242 0.06637431448 0)
(-0.1697780518 0.008422438949 -3.587641628e-22)
(-0.1855866416 -0.05985158924 7.48721847e-22)
(-0.1983220997 -0.1369211233 8.802908135e-22)
(-0.2045788864 -0.2185361012 -5.269664129e-22)
(-0.1992535696 -0.2955482084 5.140890971e-22)
(-0.1761431777 -0.350959454 1.065970076e-23)
(-0.1301098438 -0.3579757286 -1.083088249e-23)
(-0.06687655975 -0.2839720078 -8.520683104e-23)
(-0.007079510752 -0.116843205 0)
(-0.0009168316135 0.06527787257 -1.905673567e-23)
(-0.01173760797 0.1499580864 -1.323389939e-21)
(-0.02402204535 0.1996092109 1.090822047e-21)
(-0.03621756819 0.223908899 6.716360321e-22)
(-0.04684088015 0.2311620904 5.997149211e-22)
(-0.05609285574 0.226815879 6.623059507e-22)
(-0.06448002045 0.2138652882 -4.442273027e-23)
(-0.07268039615 0.1934690811 -3.449769656e-22)
(-0.08140356889 0.1655538559 2.145031629e-22)
(-0.09132464692 0.1293405496 0)
(-0.1030158558 0.08369638474 0)
(-0.1168189407 0.02743369757 2.648555255e-22)
(-0.1325967079 -0.04034540278 8.216997709e-23)
(-0.1493267062 -0.1197170367 -2.807043477e-22)
(-0.1644737555 -0.208620916 -5.396511234e-23)
(-0.1730571007 -0.3003737601 1.306055154e-22)
(-0.1672110916 -0.3789839751 -3.384701938e-22)
(-0.1366181843 -0.4132843219 -1.72475688e-23)
(-0.08020144838 -0.3535120677 8.509038355e-23)
(-0.01050650002 -0.1592579718 -6.051686582e-22)
(-0.002267763941 0.07340434747 0)
(-0.01587655403 0.1624052252 2.140478946e-21)
(-0.02681321824 0.211423481 0)
(-0.03447861774 0.2329704574 -1.348495618e-21)
(-0.0379332345 0.2373597628 6.205904233e-23)
(-0.03840685061 0.2308989747 -6.173530403e-22)
(-0.03714554432 0.2169294422 -4.742681943e-22)
(-0.03539167956 0.1967545777 8.275699211e-22)
(-0.03431421283 0.1703104454 -1.879378851e-22)
(-0.03503244611 0.1368024684 0)
(-0.03864476375 0.0949587511 0)
(-0.04616237979 0.04325858348 2.422069945e-23)
(-0.05839399169 -0.01989566814 -5.993537227e-22)
(-0.07559373842 -0.09596240988 -4.299948577e-22)
(-0.09684700299 -0.1853193087 4.631787829e-22)
(-0.1186716602 -0.2851251264 -6.471420959e-22)
(-0.1335121248 -0.3835964447 9.045390503e-23)
(-0.1266769538 -0.4501801242 3.074285566e-23)
(-0.08904048539 -0.4196017126 5.666295168e-22)
(-0.01527194989 -0.2110323023 6.040282502e-22)
(-0.005187150406 0.08593790299 0)
(-0.02533037163 0.1764691844 1.467359275e-22)
(-0.03500696845 0.2203338754 -4.907709157e-23)
(-0.03667737363 0.2351662363 7.626273673e-22)
(-0.03055862301 0.2340170757 -6.988917521e-22)
(-0.01962090819 0.2238795554 4.734827637e-23)
(-0.006120942964 0.2081477955 -1.017907912e-22)
(0.008028489188 0.188013875 -3.380217084e-22)
(0.02123676513 0.1633774036 2.057936235e-22)
(0.03207304273 0.1333977038 0)
(0.03905085273 0.09678209235 0)
(0.0406692251 0.05192428386 -2.896957268e-22)
(0.03531975749 -0.003056611448 0)
(0.02155854032 -0.07038801142 -5.507076956e-22)
(-0.001638554753 -0.1523963858 -1.461925311e-23)
(-0.03341913315 -0.2504375911 2.556507382e-23)
(-0.06934373442 -0.3597823092 2.195263673e-22)
(-0.09244285111 -0.4573949049 4.814198862e-24)
(-0.08724770797 -0.4696474872 -5.795879987e-22)
(-0.02103827234 -0.2697892656 0)
(-0.01111962952 0.1085936009 0)
(-0.04255025703 0.194639628 -8.833487814e-22)
(-0.04810681745 0.2256630737 -5.40501847e-22)
(-0.03944798064 0.228001853 4.538736051e-22)
(-0.01912780136 0.2180061501 -1.716872653e-24)
(0.007232592672 0.2026173922 -4.553609489e-23)
(0.03619178502 0.1846098443 5.684169683e-22)
(0.06530824559 0.1646214972 -2.760719202e-23)
(0.09273816193 0.1422964784 -2.064795138e-22)
(0.1168692193 0.116678887 3.135988429e-23)
(0.1360555696 0.08651684795 -3.420072959e-23)
(0.1485163588 0.05031711924 -3.685849654e-23)
(0.1521263315 0.006313699799 3.20229431e-22)
(0.1445878116 -0.04781263474 6.114137308e-22)
(0.1232148555 -0.115177989 -5.097779615e-22)
(0.08608725405 -0.2003195473 -1.616849033e-22)
(0.03177344009 -0.3067033857 1.528933796e-22)
(-0.02377675206 -0.4239059815 7.293374646e-23)
(-0.06498701977 -0.4870729822 1.912952042e-21)
(-0.0251083915 -0.3290854298 2.954608618e-21)
(-0.02004456486 0.1460932361 -4.386489015e-23)
(-0.06419226625 0.2112826665 4.413638975e-23)
(-0.05079276325 0.2176615201 9.99337901e-22)
(-0.01951025363 0.201352861 -8.07610679e-24)
(0.02389125447 0.1807705873 0)
(0.07121014264 0.1605607489 4.357115817e-23)
(0.1186807202 0.1415440367 -2.269698685e-22)
(0.1640501257 0.123251502 -9.010262675e-23)
(0.2057842319 0.1047921669 3.673147288e-23)
(0.2425326384 0.08509717919 -1.698268019e-23)
(0.2728172053 0.06302477151 3.424119362e-23)
(0.2948937355 0.03735137711 -6.583938205e-23)
(0.3063837154 0.006634450225 -9.292034684e-23)
(0.3047095896 -0.03078202964 1.516272262e-22)
(0.2861786317 -0.0777835145 0)
(0.2468855886 -0.1398751968 1.506671191e-22)
(0.1809535249 -0.2266052744 2.559179909e-22)
(0.09594084764 -0.3443587103 0)
(-0.006750528777 -0.4551883556 -3.674970425e-21)
(-0.01923275234 -0.3777235437 -2.892244168e-21)
(-0.02591317253 0.2277044426 -9.512118661e-22)
(-0.03997319382 0.2238365137 -1.388289095e-22)
(0.03655011243 0.1810454014 -2.333530198e-22)
(0.1089936239 0.1450648662 -1.19238432e-22)
(0.181602614 0.1171853207 -4.293780277e-23)
(0.248828935 0.09621632945 9.772092907e-23)
(0.3097982357 0.07997165854 -1.406355805e-22)
(0.36434558 0.0665322107 1.294711231e-22)
(0.4123289432 0.05447850179 -8.602516759e-23)
(0.4533285338 0.04271849627 1.131581136e-25)
(0.4865095708 0.03035175536 1.525438532e-23)
(0.5104992144 0.01657076752 7.986607672e-23)
(0.523456828 0.0005808980756 -1.809449772e-22)
(0.523025312 -0.01859052075 -1.616367696e-22)
(0.505118788 -0.04282987235 -4.262329965e-23)
(0.4657916024 -0.07631037236 0)
(0.3952117485 -0.1286021046 -1.844561974e-22)
(0.2915634649 -0.2208447986 8.146681707e-22)
(0.1197191085 -0.352499876 1.631284881e-21)
(0.02669879498 -0.3775458546 2.172490881e-21)
(0.2142960471 0.1347512038 9.862686355e-22)
(0.2776516804 0.09871335035 0)
(0.4316821549 0.05810804587 -2.593224811e-22)
(0.5304844423 0.03846132912 -1.741052098e-22)
(0.6016791705 0.02622893796 0)
(0.6570692066 0.01831257087 -6.002895242e-23)
(0.7014392802 0.013130331 6.367542472e-23)
(0.7374986657 0.009538993514 -1.796262151e-23)
(0.7668189345 0.006804874195 2.879813297e-23)
(0.7900929962 0.004468678381 2.310305012e-23)
(0.8073494606 0.00222805662 0)
(0.8181760379 -0.0001416018297 -2.868958098e-23)
(0.8215886636 -0.002714880189 0)
(0.8162038666 -0.005705925945 2.736258942e-23)
(0.7991181693 -0.009607413792 1.422985881e-23)
(0.7679970946 -0.01500147355 -5.797001394e-23)
(0.710659267 -0.02502694776 -2.534505287e-22)
(0.6235207546 -0.04204489832 -6.916471815e-22)
(0.423008841 -0.09183181099 0)
(0.2705668304 -0.1524031489 -2.119322752e-21)
)


// ************************************************************************* //
