/*--------------------------------*- C++ -*----------------------------------*\
  =========                 |
  \\      /  F ield         | OpenFOAM: The Open Source CFD Toolbox
   \\    /   O peration     | Website:  https://openfoam.org
    \\  /    A nd           | Version:  13
     \\/     M anipulation  |
\*---------------------------------------------------------------------------*/
FoamFile
{
    format      ascii;
    class       vectorField;
    location    "20.98";
    object      U_all;
}
// * * * * * * * * * * * * * * * * * * * * * * * * * * * * * * * * * * * * * //


400
(
(1.083555604e-05 -3.786893501e-05 0)
(-0.0006661601471 0.0004129653129 -1.54179116e-23)
(-0.002184944984 0.0009201776714 0)
(-0.004046874498 0.001312443323 0)
(-0.00597037046 0.001534660321 6.82593497e-25)
(-0.007760806098 0.001569432459 4.15276097e-24)
(-0.009282196968 0.001423193455 -7.310045012e-24)
(-0.01043336407 0.001119443819 7.596917084e-24)
(-0.01113417263 0.0006959238606 -2.100772363e-25)
(-0.01132457743 0.0002030487254 -4.002944788e-24)
(-0.01096951386 -0.00030014244 5.812828162e-24)
(-0.0100704895 -0.0007473388195 -5.93726862e-23)
(-0.008678561958 -0.001075346612 -6.561025766e-23)
(-0.006902096187 -0.001232844859 -7.79331036e-23)
(-0.004910512473 -0.001192506388 4.57955345e-24)
(-0.002927432413 -0.0009618906393 -4.144496438e-24)
(-0.001205763529 -0.0005912915527 -2.003403869e-22)
(-1.957306738e-05 -0.0001700429213 0)
(0.0005177924576 0.0001718908823 1.531212973e-25)
(0.000222658733 0.0003058506497 -2.835872358e-24)
(-0.0002633613092 0.0008287096636 1.389548684e-25)
(-0.002702632851 0.003382913698 1.551430424e-23)
(-0.006905320233 0.005602888618 1.540587417e-25)
(-0.0119488316 0.007006167996 -8.460460972e-25)
(-0.01713001634 0.007551601744 1.156854481e-24)
(-0.02196896183 0.007292166651 1.300603877e-23)
(-0.02610331204 0.006320237018 1.451354049e-24)
(-0.02925754078 0.004753088508 -7.346967577e-24)
(-0.03121841894 0.002736703822 1.018654561e-23)
(-0.03183395727 0.000452631154 4.519573865e-24)
(-0.03102026357 -0.001883282462 -6.328912711e-24)
(-0.02878689876 -0.004021685079 2.958963997e-24)
(-0.02526646534 -0.005706744608 3.899689893e-23)
(-0.02072850315 -0.006705789932 -1.957847934e-24)
(-0.01558760916 -0.006852767318 3.760955541e-24)
(-0.01038432957 -0.006096548255 -9.764871591e-23)
(-0.005730319271 -0.004545841531 9.662277362e-23)
(-0.00223380446 -0.002507609873 -4.004197183e-25)
(-0.0001821788102 -0.0005029013405 4.105183649e-25)
(8.337559094e-05 0.0006095050066 0)
(-0.0004186937534 0.00293425237 -2.916088744e-25)
(-0.004646416549 0.008801361813 1.710036258e-23)
(-0.01136833369 0.01323634902 -8.196163803e-24)
(-0.01932114608 0.01578720395 -2.059078651e-25)
(-0.0274654822 0.01652505852 2.022829913e-25)
(-0.03510695635 0.01563995206 8.713188903e-27)
(-0.04170090793 0.01335646147 -1.281819757e-24)
(-0.04682209028 0.009917550223 -4.591800302e-25)
(-0.05013587564 0.005601703794 -1.066641443e-23)
(-0.05139859421 0.0007452240794 0)
(-0.05046516596 -0.004239605737 0)
(-0.04732586257 -0.008883926592 2.675338069e-23)
(-0.04215006133 -0.01267784951 2.817377504e-23)
(-0.03530736857 -0.01513198839 -1.649406748e-24)
(-0.02738517494 -0.0158582263 4.857413195e-23)
(-0.01916726103 -0.01467053877 9.442469795e-23)
(-0.01155966131 -0.01169197526 4.001822463e-23)
(-0.005465128601 -0.007450328663 4.228941683e-25)
(-0.001451215756 -0.002936527071 1.028074524e-25)
(-9.072815716e-05 0.0002252625971 0)
(-0.0005022768536 0.006043493294 -4.25488776e-23)
(-0.00640057964 0.01636557097 -1.700237199e-23)
(-0.01552985198 0.02355186315 8.123005647e-24)
(-0.02627051596 0.02743306621 0)
(-0.0372755067 0.02831248465 0)
(-0.04767545483 0.02658015283 0)
(-0.05677938351 0.02262533743 -4.679778602e-26)
(-0.06403505245 0.01683245795 -2.096884531e-24)
(-0.06899135149 0.009621071373 0)
(-0.0712890581 0.001492509944 1.646417201e-24)
(-0.07069040425 -0.006932720458 2.809823157e-25)
(-0.06711407458 -0.01492452286 -2.817690605e-25)
(-0.060685145 -0.02166039141 0)
(-0.05179638607 -0.02630875029 4.144498173e-23)
(-0.04114172026 -0.028153851 -4.692803213e-23)
(-0.02971428313 -0.02676811664 -2.775350059e-23)
(-0.01873410978 -0.02221153673 -3.98740276e-23)
(-0.009486696712 -0.01521748851 7.793493801e-25)
(-0.002976584566 -0.007298150301 9.758063388e-23)
(-0.0002318427551 -0.0008667626082 0)
(-0.0005314115096 0.01009177707 4.275589979e-23)
(-0.007980906808 0.02594381048 4.771823311e-25)
(-0.01939049423 0.03641719578 -4.662836567e-25)
(-0.03281326998 0.04184218674 0)
(-0.04663226928 0.0428820658 7.763695979e-25)
(-0.0598340783 0.04018951516 -7.656049628e-25)
(-0.07161182359 0.03433877132 3.664501086e-23)
(-0.08130444134 0.02585127891 1.839850636e-23)
(-0.08834193759 0.01527128411 6.213121158e-24)
(-0.09223063523 0.003248155541 -1.6483353e-24)
(-0.09258072469 -0.009402374768 0)
(-0.0891543514 -0.02166647369 4.38754023e-25)
(-0.08194121299 -0.03235716952 1.015254639e-23)
(-0.0712534622 -0.0402013385 -4.361275905e-23)
(-0.05780830078 -0.04400963195 1.94075499e-24)
(-0.04277746742 -0.04293897911 4.244403325e-23)
(-0.02774935729 -0.03682662449 -3.885859529e-25)
(-0.01454806469 -0.02652330723 0)
(-0.004858665444 -0.01408333601 5.434343206e-23)
(-0.0003640613019 -0.002847251794 -2.561348139e-22)
(-0.0005270409273 0.01499441962 9.831705101e-23)
(-0.009374959991 0.03737819815 -4.900864088e-25)
(-0.0228747535 0.05168594336 0)
(-0.03881871895 0.05892387838 0)
(-0.05537031749 0.06023828959 -8.724434006e-23)
(-0.07140847362 0.05660376588 -8.4905525e-23)
(-0.08604296152 0.04878994143 -4.05896072e-23)
(-0.09852491475 0.0374324323 -1.500026707e-23)
(-0.1081672324 0.02315731231 -5.346049821e-24)
(-0.1143168691 0.006712071026 -8.158468813e-24)
(-0.1163777438 -0.01092591763 6.582769578e-24)
(-0.1138685638 -0.02847852556 8.791746503e-24)
(-0.1065261058 -0.04435664845 -1.891060468e-23)
(-0.09444877457 -0.05673796377 4.458788675e-24)
(-0.07825316594 -0.06376759218 0)
(-0.05921766512 -0.06392113579 -1.587457187e-23)
(-0.03933252452 -0.05652733292 -1.949492036e-26)
(-0.02113804266 -0.04235114822 0)
(-0.007317381024 -0.02397926853 -1.517160361e-22)
(-0.0005214811093 -0.005925301771 6.048478038e-22)
(-0.0004989532124 0.02063918677 -9.76474397e-23)
(-0.01052656468 0.05043858305 2.830470614e-22)
(-0.02582246151 0.06910403555 1.526050634e-22)
(-0.04400952297 0.07846956762 3.616725512e-24)
(-0.06309085955 0.08027252277 -7.316842713e-23)
(-0.08188330978 0.07586104353 9.034412761e-23)
(-0.09945341169 0.0662019071 -3.58693291e-24)
(-0.114995911 0.05200736098 -1.727093766e-24)
(-0.127723456 0.03391995909 2.520971126e-24)
(-0.1368181634 0.01270477783 7.367205721e-24)
(-0.1414423233 -0.01057961915 -6.483469962e-24)
(-0.1407974315 -0.03444701648 -9.749641057e-24)
(-0.1342494805 -0.05691058176 -3.260626081e-23)
(-0.1215230365 -0.07551360061 -3.636470688e-23)
(-0.1029491365 -0.08752241125 5.594797113e-25)
(-0.07974993595 -0.090373253 0)
(-0.05425757892 -0.0824295768 0)
(-0.02986652839 -0.06396657381 -2.900202741e-24)
(-0.01066100531 -0.03798244982 2.964521971e-24)
(-0.000734916785 -0.01049982702 1.027544504e-22)
(-0.0004478633293 0.02686435288 0)
(-0.0113466395 0.06478822696 2.001419694e-22)
(-0.02800958623 0.08827057071 8.959730176e-23)
(-0.04798773748 0.1000957071 0)
(-0.06919077566 0.1026808875 1.568890375e-22)
(-0.09042447509 0.09779246142 0)
(-0.1107605452 0.08659288801 -1.42749422e-22)
(-0.1293841763 0.06982768463 6.510683618e-24)
(-0.1454502412 0.04807743503 0)
(-0.1580074088 0.02201972768 0)
(-0.1659855991 -0.007325524288 -1.372813608e-24)
(-0.1682402848 -0.03837345035 -9.300634044e-25)
(-0.1636813026 -0.06881991078 1.489858379e-22)
(-0.1514982503 -0.09555953153 -4.703005584e-23)
(-0.1314941858 -0.1148051771 -2.554723275e-24)
(-0.1045444163 -0.12254645 1.528784202e-24)
(-0.07308285867 -0.1155311322 -1.552899703e-24)
(-0.04134410774 -0.09281590677 0)
(-0.01524996753 -0.057399127 3.200377671e-24)
(-0.001044091756 -0.01714497577 -1.012003862e-21)
(-0.0003745073372 0.03345358177 0)
(-0.01174815036 0.07996689204 -1.127592715e-22)
(-0.02920212312 0.1086096884 -6.188705081e-22)
(-0.05030884261 0.123191561 -3.753824216e-22)
(-0.07295086256 0.126879086 0)
(-0.09597389035 0.1218988876 4.117514158e-22)
(-0.1185087785 0.1096140397 1.260135025e-22)
(-0.1397938785 0.09076870184 -5.57830292e-24)
(-0.1589999008 0.0658078617 5.550693327e-24)
(-0.1751230402 0.035210534 0)
(-0.1869327532 -0.0001875679365 2.910287082e-23)
(-0.1929944242 -0.03888161805 4.691728683e-24)
(-0.1917591392 -0.0784172993 -1.075597605e-22)
(-0.1817671881 -0.1151607312 7.992853672e-23)
(-0.1620390907 -0.14423177 -2.417106304e-22)
(-0.132691347 -0.1598266373 0)
(-0.09576789473 -0.1562857775 0)
(-0.05600965016 -0.1302782151 0)
(-0.0214758687 -0.08379934932 0)
(-0.001500128 -0.02665164319 5.567438463e-22)
(-0.0002875333665 0.04015048304 0)
(-0.01169265218 0.09541183084 -3.491726201e-22)
(-0.02924154933 0.1293752882 8.929711618e-22)
(-0.05060418615 0.146895182 3.615746474e-22)
(-0.0736929636 0.1519414943 0)
(-0.09744127269 0.1472467579 -3.860737751e-22)
(-0.1210947908 0.1343965351 -3.172938687e-23)
(-0.1440188564 0.1141242952 3.331609572e-22)
(-0.1654997985 0.08669322122 1.768654151e-22)
(-0.1846098757 0.05229259514 -4.058250543e-23)
(-0.2001174834 0.01142630032 1.656445229e-23)
(-0.2104472437 -0.03469809893 -8.260152107e-24)
(-0.2137061004 -0.08374352149 3.370052613e-22)
(-0.2078072312 -0.131848815 0)
(-0.1908103331 -0.1732456765 2.41827405e-22)
(-0.1616214933 -0.2002283683 5.766811136e-24)
(-0.1211565368 -0.2039829372 -5.852811359e-24)
(-0.07384343008 -0.1771879257 1.545912425e-22)
(-0.02971497197 -0.1188487126 -5.427923295e-24)
(-0.002179254741 -0.04004893779 0)
(-0.0002119623456 0.04670588672 0)
(-0.01125022627 0.1105247808 0)
(-0.02815602018 0.1497022369 -5.021110929e-22)
(-0.0487436505 0.1701156388 -1.880398827e-23)
(-0.07099861598 0.1765910281 2.03763608e-23)
(-0.09399123831 0.1724225773 -2.013577345e-23)
(-0.1171394078 0.1594637789 -2.315941377e-23)
(-0.1400135504 0.1384651725 -3.02845507e-22)
(-0.1621284489 0.1095091736 6.697502662e-23)
(-0.1827916306 0.07245324365 4.511036217e-23)
(-0.2009794621 0.02735831437 -4.575496072e-23)
(-0.2152229355 -0.02507119888 0)
(-0.2235517977 -0.08296206177 -7.831944614e-23)
(-0.223458101 -0.1426996746 0)
(-0.2120619611 -0.198152606 -3.737731091e-22)
(-0.1867368369 -0.2400460136 5.241703335e-22)
(-0.1464373516 -0.2560464513 0)
(-0.09394055476 -0.2330940362 -1.491534331e-22)
(-0.04021730924 -0.1639427843 1.93501069e-22)
(-0.003200791778 -0.05860401234 -3.40900203e-22)
(-0.000201867311 0.0529658049 0)
(-0.01067406546 0.1247928709 9.18050961e-22)
(-0.02628707947 0.1687097039 -2.440013903e-23)
(-0.04501450128 0.1916097409 9.190893652e-22)
(-0.06494994947 0.1992577524 -2.511344972e-23)
(-0.08537074226 0.1955808239 2.837902505e-23)
(-0.1059355958 0.1827660287 -2.81199716e-23)
(-0.1264981887 0.1616438345 -1.660340792e-23)
(-0.1469063127 0.1321701458 -5.258427447e-22)
(-0.1668532625 0.09389840748 -8.903546493e-24)
(-0.1857382955 0.0464148228 9.656936879e-24)
(-0.2024862517 -0.01022283582 3.31213135e-22)
(-0.2154228855 -0.07497833371 -5.81881156e-22)
(-0.2220268412 -0.1450074472 0)
(-0.2188068016 -0.2146492362 8.883822427e-22)
(-0.2016267138 -0.2739725764 -4.937831806e-22)
(-0.1668625889 -0.3075513922 -1.571249351e-23)
(-0.1140195372 -0.2953536367 0)
(-0.05288284364 -0.2195597485 -1.887687153e-22)
(-0.004748894679 -0.08376477845 3.358103684e-22)
(-0.0003645860689 0.05901428335 1.550627546e-23)
(-0.01049835749 0.1379658851 -8.761945915e-22)
(-0.02441927674 0.1856499187 -1.156801661e-21)
(-0.04027518351 0.2101048386 -8.626693509e-22)
(-0.05631745281 0.2182025338 0)
(-0.07216066892 0.2145913388 3.512816074e-23)
(-0.08780608809 0.2018584148 -7.292785637e-23)
(-0.1034718037 0.1809878327 5.86619127e-23)
(-0.1194154126 0.1518951767 3.020417226e-22)
(-0.1358113991 0.1139180537 -1.127878055e-23)
(-0.1526272404 0.06622360395 0)
(-0.1694711638 0.008191474628 -3.602885287e-22)
(-0.1852941807 -0.06014197161 7.513831066e-22)
(-0.1980610241 -0.1372541872 8.829821167e-22)
(-0.2043677092 -0.2189035701 -5.29485812e-22)
(-0.1991068566 -0.2959467631 5.161218638e-22)
(-0.1760653668 -0.3513812941 1.077390123e-23)
(-0.1300902926 -0.3583895952 -1.094691634e-23)
(-0.06688737798 -0.2843070175 -8.237406538e-23)
(-0.007083099907 -0.1169875478 0)
(-0.0009099997151 0.06539328075 -1.911080952e-23)
(-0.01167951827 0.1502627983 -1.326714975e-21)
(-0.02389660139 0.2000393638 1.093995278e-21)
(-0.03602532867 0.2243918617 6.733622574e-22)
(-0.0465887256 0.2316299568 6.013416549e-22)
(-0.05578921014 0.2272148013 6.642534953e-22)
(-0.06413392106 0.21415943 -4.457598834e-23)
(-0.07229923355 0.19363903 -3.46057715e-22)
(-0.08099500629 0.165600073 2.151698559e-22)
(-0.09089828612 0.1292748656 0)
(-0.1025815824 0.08354049214 0)
(-0.1163887873 0.02721369779 2.654950362e-22)
(-0.132184413 -0.04060411636 8.195640964e-23)
(-0.1489485729 -0.1199956774 -2.820689362e-22)
(-0.1641485039 -0.2089121537 -5.410289665e-23)
(-0.1728034212 -0.3006803927 1.302178321e-22)
(-0.1670415944 -0.3793126915 -3.399365228e-22)
(-0.1365344196 -0.4136242758 -1.603581549e-23)
(-0.08018360962 -0.3538140328 8.226149026e-23)
(-0.01050755869 -0.1594040605 -6.03372876e-22)
(-0.002260920087 0.07348391944 0)
(-0.01580780877 0.1626378028 2.145495669e-21)
(-0.02665991425 0.2117691185 0)
(-0.03423827309 0.2333700573 -1.351572867e-21)
(-0.03761375441 0.237752469 6.185339925e-23)
(-0.03802072671 0.2312346988 -6.191762891e-22)
(-0.03670964196 0.2171748898 -4.755370167e-22)
(-0.03491956345 0.1968853796 8.299557356e-22)
(-0.03381894212 0.1703329146 -1.885287447e-22)
(-0.03452977856 0.1367268343 0)
(-0.03814645868 0.09480618559 0)
(-0.04567968713 0.04305540566 2.41128032e-23)
(-0.05793625244 -0.02012377723 -6.006294357e-22)
(-0.07517196925 -0.09619235616 -4.30892192e-22)
(-0.09647468837 -0.1855419313 4.637408731e-22)
(-0.1183651473 -0.2853433653 -6.487512337e-22)
(-0.1332854982 -0.38382463 9.115491382e-23)
(-0.1265433312 -0.4504210474 2.94754958e-23)
(-0.08899438557 -0.4198390354 5.660989271e-22)
(-0.01526934012 -0.2111638741 6.022358544e-22)
(-0.005181261944 0.08597798595 0)
(-0.02525986226 0.1766198128 1.465679457e-22)
(-0.03484414161 0.2205808967 -4.916463357e-23)
(-0.03641627413 0.2354673489 7.641738364e-22)
(-0.03020657346 0.2343218813 -7.004209779e-22)
(-0.01919221564 0.2241440996 4.745677466e-23)
(-0.005644687196 0.2083407367 -1.018542787e-22)
(0.008538038809 0.1881177521 -3.38924014e-22)
(0.0217662777 0.1633903912 2.062495208e-22)
(0.03259562376 0.1333285941 0)
(0.03955361519 0.09664910718 0)
(0.04114105303 0.05175126465 -2.902286503e-22)
(0.03575787264 -0.003243819332 0)
(0.02195732588 -0.07057225418 -5.511789532e-22)
(-0.001286504659 -0.1525632859 -1.490615785e-23)
(-0.03312292839 -0.250585877 2.559423538e-23)
(-0.06910692028 -0.3599253716 2.202474932e-22)
(-0.09228780416 -0.4575338924 4.790943261e-24)
(-0.0871847783 -0.4698033524 -5.79000687e-22)
(-0.02103167658 -0.2698909707 0)
(-0.01111650793 0.1085972733 0)
(-0.04249258061 0.1947107742 -8.847399266e-22)
(-0.04796410384 0.2258104489 -5.410566205e-22)
(-0.0392100562 0.2282012476 4.543400533e-22)
(-0.0187986331 0.2182196401 -1.710380069e-24)
(0.007639225891 0.2028101429 -4.560488339e-23)
(0.0366515184 0.1847530927 5.695804225e-22)
(0.06579963358 0.1647066722 -2.766467781e-23)
(0.09324037528 0.1423119323 -2.069448019e-22)
(0.1173590001 0.1166305285 3.14178896e-23)
(0.1365177311 0.08641759843 -3.42551527e-23)
(0.1489408356 0.05018487273 -3.690257754e-23)
(0.1525043357 0.006168171897 3.205384067e-22)
(0.1449164647 -0.04795264018 6.119175139e-22)
(0.1234985244 -0.1152979142 -5.100859837e-22)
(0.08632094844 -0.2004137782 -1.616000173e-22)
(0.0319783172 -0.3067761886 1.531276824e-22)
(-0.02363022068 -0.4239792197 7.293769782e-23)
(-0.06492778755 -0.4871561675 1.913291818e-21)
(-0.02510022026 -0.3291504755 2.954991743e-21)
(-0.02004667395 0.1460739332 -4.38992427e-23)
(-0.06416570245 0.2112948357 4.417095318e-23)
(-0.05070756619 0.2177260643 1.000117415e-21)
(-0.01935082267 0.2014613062 -8.259257633e-24)
(0.02412991078 0.1808996575 0)
(0.07152198237 0.1606856388 4.363208742e-23)
(0.1190476891 0.1416434088 -2.273546455e-22)
(0.1644519378 0.1233143439 -9.026673768e-23)
(0.2061995278 0.1048106206 3.68019911e-23)
(0.242939264 0.08507292375 -1.701426814e-23)
(0.2731973669 0.06296517237 3.429568103e-23)
(0.2952327623 0.03726808354 -6.592048246e-23)
(0.306678964 0.006540827999 -9.303099553e-23)
(0.3049585387 -0.03087215607 1.516961213e-22)
(0.2863811876 -0.0778583121 0)
(0.2470469026 -0.1399268629 1.505555742e-22)
(0.1810842052 -0.2266285337 2.559978037e-22)
(0.09603851261 -0.3443877254 0)
(-0.006700679337 -0.4552191356 -3.675629173e-21)
(-0.01922458358 -0.3777520119 -2.892620846e-21)
(-0.02591914361 0.2276841329 -9.514034422e-22)
(-0.03998266026 0.2238225161 -1.388916348e-22)
(0.03656071418 0.1810577723 -2.335408448e-22)
(0.1090470063 0.1451035222 -1.193635212e-22)
(0.1817123439 0.1172411111 -4.295575126e-23)
(0.248998607 0.09627543615 9.782143983e-23)
(0.310019991 0.08002199724 -1.408410438e-22)
(0.3646049359 0.06656607615 1.296993803e-22)
(0.4126080536 0.05449102705 -8.618876919e-23)
(0.4536078357 0.0427095144 1.132153348e-25)
(0.4867717471 0.03032466421 1.527576767e-23)
(0.5107309033 0.01653144902 7.996433112e-23)
(0.5236480095 0.0005390967276 -1.810988975e-22)
(0.5231708624 -0.01863122267 -1.617062849e-22)
(0.5052257783 -0.0428627655 -4.262660564e-23)
(0.4658668929 -0.07633104274 0)
(0.3952663086 -0.128608542 -1.846432575e-22)
(0.2916045884 -0.2208466973 8.148709818e-22)
(0.1197439852 -0.3525015868 1.631594138e-21)
(0.02670508651 -0.3775495708 2.172651771e-21)
(0.2142898312 0.1347450971 9.864801427e-22)
(0.2776323155 0.09870551811 0)
(0.431660563 0.05810437449 -2.594205135e-22)
(0.5304754872 0.0384625726 -1.741579117e-22)
(0.6016955626 0.02623388645 0)
(0.6571169516 0.01831884869 -6.008475301e-23)
(0.7015165939 0.01313567774 6.37713993e-23)
(0.737598119 0.009541945813 -1.799867466e-23)
(0.7669300021 0.006804488143 2.885522588e-23)
(0.7902038482 0.004464973045 2.314696699e-23)
(0.8074493607 0.002221711027 0)
(0.818257156 -0.000149584173 -2.872734867e-23)
(0.8216464309 -0.002723333381 0)
(0.8162373698 -0.005712280876 2.737915929e-23)
(0.7991324472 -0.009611154969 1.421640706e-23)
(0.7679985532 -0.01500249037 -5.79939218e-23)
(0.7106557952 -0.02502530123 -2.53563284e-22)
(0.6235185389 -0.0420429734 -6.91805973e-22)
(0.4230090883 -0.09182980432 0)
(0.270567432 -0.1524022402 -2.119479735e-21)
)


// ************************************************************************* //
