/*--------------------------------*- C++ -*----------------------------------*\
  =========                 |
  \\      /  F ield         | OpenFOAM: The Open Source CFD Toolbox
   \\    /   O peration     | Website:  https://openfoam.org
    \\  /    A nd           | Version:  13
     \\/     M anipulation  |
\*---------------------------------------------------------------------------*/
FoamFile
{
    format      ascii;
    class       vectorField;
    location    "17.06";
    object      U_all;
}
// * * * * * * * * * * * * * * * * * * * * * * * * * * * * * * * * * * * * * //


400
(
(1.071125983e-05 -3.76007185e-05 0)
(-0.0006657805998 0.0004127152448 -1.540481164e-23)
(-0.002182888285 0.0009192619955 0)
(-0.004042647792 0.001311004474 0)
(-0.005963884845 0.001532924715 6.799267748e-25)
(-0.007752291257 0.001567651071 4.149449005e-24)
(-0.00927210541 0.001421605393 -7.212735384e-24)
(-0.01042230035 0.001118245993 7.702109515e-24)
(-0.01112283817 0.0006952451654 -2.110160491e-25)
(-0.01131370559 0.0002029265537 -4.017903468e-24)
(-0.01095982155 -0.0002997521428 5.830407138e-24)
(-0.01006260018 -0.0007465788205 -5.952583719e-23)
(-0.008672906598 -0.001074420507 -6.578944155e-23)
(-0.006898850942 -0.001231988077 -7.813490493e-23)
(-0.004909546419 -0.001191937729 4.593920775e-24)
(-0.002928293241 -0.0009617612558 -4.161276687e-24)
(-0.001207754961 -0.0005916333616 -2.01596025e-22)
(-2.173572776e-05 -0.0001707292421 0)
(0.0005162438429 0.0001710545456 1.593206287e-25)
(0.0002222624747 0.0003052993177 -3.653116262e-24)
(-0.0002630542897 0.0008281973397 1.386035168e-25)
(-0.002699401003 0.003379206067 1.550135583e-23)
(-0.00689669225 0.00559613887 1.539155288e-25)
(-0.01193370492 0.006997518105 -8.430708036e-25)
(-0.01710834554 0.007542333023 1.151863534e-24)
(-0.02194147707 0.007283477554 1.292179859e-23)
(-0.0260713191 0.006313143288 1.538850071e-24)
(-0.02922274102 0.004748357154 -7.449650276e-24)
(-0.03118275153 0.002734788019 1.024485345e-23)
(-0.03179940619 0.0004536048708 4.536784601e-24)
(-0.03098872474 -0.001879580843 -6.348113725e-24)
(-0.02876000474 -0.004015918167 2.94797542e-24)
(-0.02524535772 -0.005699839852 3.908039928e-23)
(-0.02071371365 -0.00669884198 -1.965330423e-24)
(-0.01557894979 -0.006846875397 3.777166339e-24)
(-0.01038087454 -0.006092613967 -9.828782193e-23)
(-0.005730517876 -0.004544356498 9.729148625e-23)
(-0.002235678119 -0.002508424922 -4.127322491e-25)
(-0.0001839074763 -0.0005051705335 4.231411512e-25)
(8.312096939e-05 0.0006076976273 0)
(-0.0004180603322 0.00293093036 -2.908884567e-25)
(-0.004639958218 0.008790218902 1.702864195e-23)
(-0.01135258923 0.01321907355 -8.208354814e-24)
(-0.01929463253 0.01576660459 -2.049283589e-25)
(-0.02742833355 0.01650396476 2.013207328e-25)
(-0.0350604205 0.01562087003 1.107251448e-26)
(-0.0416470675 0.01334142714 -1.366180403e-24)
(-0.04676359965 0.009908044367 -4.651568335e-25)
(-0.05007572993 0.005598582357 -1.072750332e-23)
(-0.05133969415 0.0007486714035 0)
(-0.05041038147 -0.004230273385 0)
(-0.04727779527 -0.008869935296 2.684650671e-23)
(-0.04211049764 -0.01266102889 2.827311353e-23)
(-0.03527729586 -0.01511455249 -1.65762111e-24)
(-0.02736462096 -0.01584248089 4.887940182e-23)
(-0.01915524727 -0.01465851034 9.50452225e-23)
(-0.01155430822 -0.01168498609 4.076349999e-23)
(-0.00546390822 -0.007448550393 4.480083484e-25)
(-0.001451712695 -0.00293860376 8.948854787e-26)
(-9.073125456e-05 0.000222623466 0)
(-0.0005014366078 0.006035677462 -4.240405375e-23)
(-0.006391200132 0.01634356057 -1.693023325e-23)
(-0.01550753792 0.02352003998 8.134882819e-24)
(-0.02623348548 0.02739653667 0)
(-0.03722410026 0.02827600314 0)
(-0.0476113768 0.0265477644 0)
(-0.05670533908 0.02260023329 -5.018674018e-26)
(-0.06395440335 0.01681689606 -2.02271523e-24)
(-0.06890780543 0.009616311326 0)
(-0.07120654842 0.00149877349 1.670941489e-24)
(-0.07061256546 -0.006916486572 2.826003775e-25)
(-0.06704400986 -0.01490020965 -2.833916557e-25)
(-0.06062541663 -0.0216308197 0)
(-0.05174864086 -0.02627738638 4.174511831e-23)
(-0.04110652272 -0.02812441555 -4.722513504e-23)
(-0.02969101045 -0.0267440553 -2.813592789e-23)
(-0.01872097941 -0.0221953623 -4.063205614e-23)
(-0.009480974735 -0.01521005045 7.783338618e-25)
(-0.002975314179 -0.007297962944 9.658956576e-23)
(-0.0002316833131 -0.0008693180344 0)
(-0.0005305280012 0.01007798888 4.261041597e-23)
(-0.007969323327 0.02590804878 4.776856718e-25)
(-0.01936304145 0.03636752866 -4.667756558e-25)
(-0.03276790211 0.04178653742 0)
(-0.04656945765 0.04282736924 7.740459799e-25)
(-0.05975583485 0.04014146365 -7.633136559e-25)
(-0.07152125966 0.03430174253 3.64907833e-23)
(-0.08120537511 0.02582830368 1.822616688e-23)
(-0.08823856645 0.01526400277 6.151064596e-24)
(-0.09212731337 0.003256776409 -1.672888156e-24)
(-0.09248163475 -0.00937895555 0)
(-0.08906328528 -0.02163082434 4.43201602e-25)
(-0.08186141266 -0.03231303969 1.032738411e-23)
(-0.07118734788 -0.04015341842 -4.393340322e-23)
(-0.0577572382 -0.04396313135 1.962966365e-24)
(-0.04274154603 -0.04289898903 4.323420376e-23)
(-0.02772725119 -0.03679723739 -4.015460499e-25)
(-0.01453707352 -0.02650655351 0)
(-0.00485524264 -0.01407814852 5.424489228e-23)
(-0.0003636879545 -0.002848536248 -2.549300224e-22)
(-0.0005262585703 0.01497366712 9.830147643e-23)
(-0.009362200462 0.03732680108 -4.90277969e-25)
(-0.02284434338 0.0516162966 0)
(-0.03876837534 0.05884706313 0)
(-0.05530050653 0.0601635537 -8.710342108e-23)
(-0.07132130216 0.05653846171 -8.472028086e-23)
(-0.08594167221 0.04873959549 -4.041878267e-23)
(-0.09841346156 0.03740081339 -1.490302113e-23)
(-0.1080499572 0.02314646335 -5.290736747e-24)
(-0.1141982747 0.006722324741 -8.110297656e-24)
(-0.1162622649 -0.01089586591 6.528201617e-24)
(-0.1137603891 -0.02843163425 8.685945362e-24)
(-0.1064290317 -0.04429734366 -1.885695559e-23)
(-0.09436599124 -0.05667195448 4.002325526e-24)
(-0.07818697929 -0.06370148972 0)
(-0.05916915489 -0.06386179851 -1.630721178e-23)
(-0.03930118024 -0.05648082814 -4.879686099e-27)
(-0.02112151946 -0.0423213347 0)
(-0.007311703904 -0.02396627767 -1.506158638e-22)
(-0.0005209010476 -0.005924258862 6.022966684e-22)
(-0.0004983944237 0.02061112481 -9.763170272e-23)
(-0.01051389917 0.05037097619 2.827995484e-22)
(-0.02579188582 0.06901379518 1.524544775e-22)
(-0.04395855223 0.07837102611 3.611765262e-24)
(-0.06301981515 0.08017723394 -7.306692724e-23)
(-0.08179417849 0.07577794585 9.014511452e-23)
(-0.09934930386 0.06613757357 -3.578628105e-24)
(-0.1148806157 0.05196620551 -1.721049699e-24)
(-0.1276011233 0.03390437797 2.511556892e-24)
(-0.1366930934 0.01271525281 7.322371147e-24)
(-0.1413188283 -0.01054441861 -6.431596569e-24)
(-0.1406797054 -0.03439023617 -9.633026908e-24)
(-0.1341415154 -0.05683700447 -3.255064814e-23)
(-0.1214285236 -0.07542959137 -3.557691957e-23)
(-0.1028712103 -0.08743567732 5.432865364e-25)
(-0.07969077777 -0.09029231862 0)
(-0.05421783742 -0.08236274415 0)
(-0.02984468876 -0.06392021186 -2.88114196e-24)
(-0.01065307168 -0.03795884036 2.945038419e-24)
(-0.0007341580815 -0.01049524087 1.026142554e-22)
(-0.0004476316188 0.02682941607 0)
(-0.01133548633 0.06470536663 1.999077145e-22)
(-0.02798201721 0.08816090506 8.949170193e-23)
(-0.04794114332 0.0999766385 0)
(-0.06912522781 0.1025661384 1.566514456e-22)
(-0.09034166998 0.09769241943 0)
(-0.110663258 0.08651502794 -1.424631017e-22)
(-0.1292757982 0.06977692646 6.49548596e-24)
(-0.1453344494 0.04805641667 0)
(-0.1578879551 0.02202901446 0)
(-0.1658662554 -0.007287272185 -1.36736771e-24)
(-0.1681247091 -0.03830927912 -9.245606573e-25)
(-0.1635730606 -0.0687346716 1.482605741e-22)
(-0.1514009467 -0.09545976478 -4.695488468e-23)
(-0.131411324 -0.1146991163 -2.533719081e-24)
(-0.1044790983 -0.1224438118 1.509101727e-24)
(-0.07303711146 -0.1154423576 -1.532906753e-24)
(-0.04131784994 -0.09275039953 0)
(-0.01523992728 -0.0573624022 3.188734637e-24)
(-0.001043157807 -0.01713565908 -1.008892287e-21)
(-0.0003746795449 0.03341303074 0)
(-0.01173992337 0.07987135578 -1.126585926e-22)
(-0.02918078657 0.1084836583 -6.182137813e-22)
(-0.05027179267 0.1230550645 -3.749394123e-22)
(-0.07289787232 0.1267477696 0)
(-0.09590626593 0.1217844156 4.111092057e-22)
(-0.1184288438 0.1095246231 1.257604712e-22)
(-0.1397044936 0.09070958691 -5.566016512e-24)
(-0.1589040958 0.06578173775 5.538467758e-24)
(-0.1750237683 0.03521788162 0)
(-0.1868326886 -0.0001481802392 2.903512082e-23)
(-0.1928961078 -0.03881323212 4.676896764e-24)
(-0.191665088 -0.07832457598 -1.07133751e-22)
(-0.1816800225 -0.1150498581 7.953320848e-23)
(-0.1619618495 -0.1441107027 -2.407635777e-22)
(-0.1326274552 -0.1597053531 0)
(-0.09572064229 -0.1561761569 0)
(-0.05598092132 -0.1301927375 0)
(-0.02146416073 -0.08374778334 0)
(-0.001499024674 -0.02663652199 5.551313912e-22)
(-0.0002881456544 0.04010634766 0)
(-0.0116885697 0.09530772127 -3.488133404e-22)
(-0.02922931696 0.1292377582 8.920378256e-22)
(-0.05058137704 0.1467462004 3.611469918e-22)
(-0.07365905197 0.1517982976 0)
(-0.09739712266 0.1471221001 -3.85474072e-22)
(-0.1210422127 0.1342991997 -3.16767965e-23)
(-0.1439601097 0.1140596516 3.326121611e-22)
(-0.1654371558 0.08666374305 1.765597167e-22)
(-0.1845452917 0.05229837022 -4.051085027e-23)
(-0.2000523888 0.01146551455 1.654837312e-23)
(-0.2103825845 -0.03462876534 -8.241103438e-24)
(-0.2136425305 -0.08364850402 3.363241391e-22)
(-0.2077455524 -0.1317335631 0)
(-0.1907521145 -0.1731170193 2.408798929e-22)
(-0.1615694954 -0.2000952644 5.738540039e-24)
(-0.1211146608 -0.2038573014 -5.824118811e-24)
(-0.07381560673 -0.177084485 1.537045431e-22)
(-0.02970251648 -0.1187820183 -5.401784389e-24)
(-0.002178007062 -0.04002723972 0)
(-0.0002129997334 0.04666079118 0)
(-0.01125112098 0.1104174221 0)
(-0.02815498928 0.1495595553 -5.015943917e-22)
(-0.04873862966 0.1699606515 -1.878428192e-23)
(-0.07098879326 0.1764421372 2.035045515e-23)
(-0.09397697397 0.1722934237 -2.011017359e-23)
(-0.1171219141 0.159363572 -2.312470166e-23)
(-0.1399944136 0.1383992207 -3.023427951e-22)
(-0.1621091275 0.1094794515 6.692705689e-23)
(-0.1827730269 0.07245906727 4.502984061e-23)
(-0.200961643 0.02739704115 -4.567095384e-23)
(-0.2152051511 -0.02500342291 0)
(-0.2235326112 -0.08286987484 -7.803242254e-23)
(-0.2234359569 -0.1425876697 0)
(-0.2120361348 -0.1980258778 -3.730854091e-22)
(-0.1867083065 -0.2399112314 5.229680418e-22)
(-0.1464094477 -0.2559136771 0)
(-0.09391850518 -0.2329783562 -1.48293032e-22)
(-0.04020569142 -0.1638629226 1.92613934e-22)
(-0.003199466797 -0.05857556518 -3.400169692e-22)
(-0.0002032653842 0.052922695 0)
(-0.01068024839 0.1246883197 9.172476785e-22)
(-0.02629823655 0.1685691606 -2.437753704e-23)
(-0.04502909548 0.1914562026 9.182379232e-22)
(-0.06496686721 0.1991102475 -2.508748998e-23)
(-0.08538969851 0.1954536269 2.834447568e-23)
(-0.1059569972 0.1826686384 -2.808573752e-23)
(-0.1265227582 0.161581383 -1.65814846e-23)
(-0.1469345718 0.1321439142 -5.251556243e-22)
(-0.1668850461 0.09390667043 -8.891715574e-24)
(-0.1857724416 0.04645370099 9.644358074e-24)
(-0.2025208038 -0.01015834589 3.308477917e-22)
(-0.2154546318 -0.07489293525 -5.811422633e-22)
(-0.2220519371 -0.1449054053 0)
(-0.2188221329 -0.2145339046 8.870651359e-22)
(-0.2016307665 -0.2738476143 -4.926532802e-22)
(-0.1668568145 -0.3074232663 -1.567663806e-23)
(-0.1140088767 -0.2952351888 0)
(-0.05287433505 -0.219471592 -1.878965474e-22)
(-0.004747633377 -0.08373038728 3.349424924e-22)
(-0.0003662481327 0.05897610215 1.549297261e-23)
(-0.01050957455 0.1378703229 -8.754281236e-22)
(-0.02444233238 0.1855190439 -1.155908042e-21)
(-0.04030919199 0.2099604339 -8.61870592e-22)
(-0.05636095185 0.2180635665 0)
(-0.07221250173 0.2144723577 3.509143634e-23)
(-0.08786549849 0.2017690498 -7.284999436e-23)
(-0.1035383172 0.1809330473 5.859785423e-23)
(-0.1194883928 0.1518755408 3.016782487e-22)
(-0.1358896351 0.113930857 -1.126657235e-23)
(-0.1527087768 0.0662637581 0)
(-0.1695527986 0.008252791533 -3.598853863e-22)
(-0.185371948 -0.06006500898 7.506798089e-22)
(-0.1981304372 -0.137165993 8.822712287e-22)
(-0.2044238628 -0.2188063152 -5.288196239e-22)
(-0.19914589 -0.2958412964 5.155848555e-22)
(-0.1760861004 -0.3512696556 1.074371396e-23)
(-0.1300955486 -0.3582800387 -1.09162445e-23)
(-0.06688454874 -0.2842183173 -8.312177575e-23)
(-0.007082153156 -0.1169493153 0)
(-0.0009118142352 0.06536264527 -1.909647599e-23)
(-0.01169496804 0.1501819022 -1.325833615e-21)
(-0.02392997511 0.199925192 1.093154442e-21)
(-0.03607647608 0.2242637438 6.72904185e-22)
(-0.04665580681 0.2315059526 6.009096768e-22)
(-0.05586996921 0.2271092101 6.637361402e-22)
(-0.06422599549 0.2140817539 -4.453531827e-23)
(-0.07240056948 0.1935942208 -3.45770901e-22)
(-0.08110350705 0.1655881201 2.149933503e-22)
(-0.09101147728 0.1292925371 0)
(-0.1026968371 0.08358199344 0)
(-0.1165029214 0.02727209148 2.653262876e-22)
(-0.1322937765 -0.0405355772 8.201321874e-23)
(-0.1490488552 -0.1199219259 -2.817081122e-22)
(-0.1642347591 -0.2088351177 -5.406652328e-23)
(-0.1728706999 -0.3005993015 1.303209048e-22)
(-0.1670865514 -0.3792257507 -3.395497346e-22)
(-0.1365566515 -0.4135343263 -1.635541047e-23)
(-0.08018836271 -0.3537341206 8.300817876e-23)
(-0.01050728102 -0.1593653858 -6.038452293e-22)
(-0.002262736615 0.07346280637 0)
(-0.01582607055 0.1625760815 2.144165761e-21)
(-0.02670064441 0.211677413 0)
(-0.03430212614 0.233264092 -1.350755776e-21)
(-0.03769861323 0.2376484282 6.190763667e-23)
(-0.03812322881 0.231145907 -6.186919054e-22)
(-0.03682547336 0.2171102709 -4.752021669e-22)
(-0.03504493961 0.1968506892 8.293211748e-22)
(-0.03395023483 0.1703271569 -1.883723411e-22)
(-0.03466302303 0.1367470817 0)
(-0.03827851131 0.0948467548 0)
(-0.04580759108 0.04310929021 2.41413513e-23)
(-0.05805750203 -0.02006342366 -6.00292926e-22)
(-0.07528366399 -0.09613152876 -4.306554759e-22)
(-0.0965732904 -0.1854830776 4.635929339e-22)
(-0.1184463255 -0.2852856895 -6.483268329e-22)
(-0.1333455086 -0.3837643232 9.096929056e-23)
(-0.1265787196 -0.4503573161 2.980972722e-23)
(-0.08900660897 -0.4197762526 5.662379539e-22)
(-0.01527003167 -0.2111290554 6.027073171e-22)
(-0.005182823159 0.08596735307 0)
(-0.0252785752 0.1765798476 1.466122993e-22)
(-0.03488735971 0.2205153708 -4.914137028e-23)
(-0.03648556737 0.2353875117 7.63762921e-22)
(-0.03029995292 0.2342411204 -7.00014541e-22)
(-0.01930573755 0.2240740743 4.742817227e-23)
(-0.005771454178 0.2082897679 -1.018374315e-22)
(0.008402510931 0.1880903814 -3.386831765e-22)
(0.02162619866 0.1633871647 2.061291002e-22)
(0.03245725503 0.1333471057 0)
(0.03942048767 0.09668449816 0)
(0.04101606505 0.05179721774 -2.900881046e-22)
(0.03564192789 -0.003194098555 0)
(0.02185186373 -0.07052345723 -5.51054996e-22)
(-0.001379644792 -0.1525191533 -1.483032677e-23)
(-0.033201313 -0.2505467095 2.55866107e-23)
(-0.06916955118 -0.359887604 2.200580394e-22)
(-0.09232880903 -0.4574971063 4.797008278e-24)
(-0.08720144936 -0.4697621262 -5.791546454e-22)
(-0.02103342064 -0.2698640625 0)
(-0.0111173356 0.108596299 0)
(-0.04250788218 0.1946918954 -8.843708986e-22)
(-0.04800197032 0.2257713573 -5.409092524e-22)
(-0.03927318787 0.2281483824 4.542160408e-22)
(-0.01888595899 0.2181630465 -1.712132601e-24)
(0.007531443336 0.2027590377 -4.558654189e-23)
(0.03652947711 0.1847149427 5.692732654e-22)
(0.06566924645 0.1646844422 -2.764946533e-23)
(0.0931074049 0.1423080587 -2.068217892e-22)
(0.1172293343 0.1166435186 3.140256472e-23)
(0.136395445 0.08644403157 -3.424078652e-23)
(0.1488286079 0.050220009 -3.68909943e-23)
(0.1524043676 0.006206834833 3.204572202e-22)
(0.1448294486 -0.04791555649 6.117850342e-22)
(0.1234234629 -0.1152662047 -5.100052714e-22)
(0.08625909434 -0.2003888969 -1.61623024e-22)
(0.03192419855 -0.3067569687 1.530652113e-22)
(-0.02366891125 -0.4239598854 7.293651394e-23)
(-0.06494349528 -0.4871341847 1.913200333e-21)
(-0.0251023843 -0.3291332783 2.954888375e-21)
(-0.02004611625 0.1460790551 -4.389010069e-23)
(-0.0641727481 0.2112916033 4.416175348e-23)
(-0.05073015916 0.2177089428 9.999100349e-22)
(-0.01939312501 0.2014325542 -8.210640923e-24)
(0.02406659954 0.1808654565 0)
(0.07143932239 0.1606525647 4.361589826e-23)
(0.1189503715 0.1416170268 -2.272524967e-22)
(0.1643453976 0.1232978092 -9.022324524e-23)
(0.2060895395 0.1048058206 3.678333234e-23)
(0.2428316154 0.08507943744 -1.700592735e-23)
(0.2730967764 0.06298103172 3.428129787e-23)
(0.2951430894 0.03729018429 -6.589907386e-23)
(0.3066009133 0.006565589857 -9.30020814e-23)
(0.3048927397 -0.03084832222 1.516779765e-22)
(0.2863276663 -0.07783854773 0)
(0.2470042763 -0.1399132198 1.505857023e-22)
(0.1810496928 -0.2266223605 2.559764825e-22)
(0.09601272546 -0.3443801024 0)
(-0.006713857733 -0.455211017 -3.675452229e-21)
(-0.01922674177 -0.3777444938 -2.892519247e-21)
(-0.02591756396 0.2276895227 -9.513525455e-22)
(-0.03998015286 0.2238262299 -1.388748871e-22)
(0.03655790387 0.181054489 -2.334908572e-22)
(0.1090328455 0.1450932639 -1.193303845e-22)
(0.1816832429 0.1172263319 -4.29509627e-23)
(0.2489536382 0.09625979042 9.779480454e-23)
(0.3099612129 0.08000864878 -1.407866323e-22)
(0.3645361906 0.06655713893 1.296388943e-22)
(0.4125341359 0.05448774046 -8.614549112e-23)
(0.4535339067 0.04271192886 1.131988749e-25)
(0.4867023938 0.03033187175 1.527011911e-23)
(0.5106696643 0.01654188531 7.993838729e-23)
(0.5235975012 0.0005501855404 -1.810583018e-22)
(0.5231323953 -0.01862044136 -1.616879689e-22)
(0.5051975216 -0.0428540683 -4.262577509e-23)
(0.4658470172 -0.07632558841 0)
(0.3952519139 -0.1286068447 -1.845933265e-22)
(0.2915937415 -0.2208462112 8.148168763e-22)
(0.1197374161 -0.3525011401 1.631511449e-21)
(0.02670342544 -0.377548591 2.172608772e-21)
(0.2142914785 0.1347467182 9.864239399e-22)
(0.2776374484 0.0987075982 0)
(0.4316662876 0.05810534924 -2.593943006e-22)
(0.5304778614 0.03846224159 -1.74143793e-22)
(0.6016912168 0.02623257519 0)
(0.6571043035 0.01831718865 -6.006996311e-23)
(0.7014961129 0.01313425839 6.374599328e-23)
(0.7375717698 0.009541170199 -1.798913648e-23)
(0.7669005983 0.00680459394 2.884012007e-23)
(0.7901745194 0.004465957493 2.313535221e-23)
(0.8074229479 0.002223392363 0)
(0.8182357276 -0.0001474730393 -2.871736863e-23)
(0.8216311854 -0.002721113271 0)
(0.8162285368 -0.005710610737 2.737478367e-23)
(0.7991286985 -0.009610174539 1.422000517e-23)
(0.7679981893 -0.01500222952 -5.798755294e-23)
(0.710656729 -0.02502574048 -2.535332381e-22)
(0.6235191342 -0.04204348666 -6.91763608e-22)
(0.4230090252 -0.09183033626 0)
(0.270567274 -0.1524024812 -2.119437784e-21)
)


// ************************************************************************* //
