/*--------------------------------*- C++ -*----------------------------------*\
  =========                 |
  \\      /  F ield         | OpenFOAM: The Open Source CFD Toolbox
   \\    /   O peration     | Website:  https://openfoam.org
    \\  /    A nd           | Version:  13
     \\/     M anipulation  |
\*---------------------------------------------------------------------------*/
FoamFile
{
    format      ascii;
    class       vectorField;
    location    "35.76";
    object      U_all;
}
// * * * * * * * * * * * * * * * * * * * * * * * * * * * * * * * * * * * * * //


400
(
(1.099351508e-05 -3.784026745e-05 0)
(-0.0006661085965 0.0004130412179 -1.550483482e-23)
(-0.002185377497 0.0009203926985 0)
(-0.00404783238 0.001312779053 0)
(-0.005971867253 0.001535064535 6.84452564e-25)
(-0.007762782952 0.001569848613 4.150847356e-24)
(-0.009284544278 0.001423565976 -7.369505933e-24)
(-0.01043593758 0.001119725233 7.534491934e-24)
(-0.01113680732 0.0006960823266 -2.095671702e-25)
(-0.0113271036 0.0002030752925 -3.995115408e-24)
(-0.01097176694 -0.000300236295 5.804063291e-24)
(-0.01007232582 -0.0007475177031 -5.929880037e-23)
(-0.008679880733 -0.001075562008 -6.553031139e-23)
(-0.006902854129 -0.001233042629 -7.784716433e-23)
(-0.004910737898 -0.001192637319 4.573836299e-24)
(-0.002927230365 -0.0009619207759 -4.138167119e-24)
(-0.001205297454 -0.0005912133851 -1.998894124e-22)
(-1.906741612e-05 -0.000169885102 0)
(0.000518154669 0.0001720839666 1.509974974e-25)
(0.0002227516633 0.00030597841 -2.557400766e-24)
(-0.0002633687764 0.0008289576264 1.383623948e-25)
(-0.002703311442 0.003383836161 1.56026691e-23)
(-0.006907278976 0.005604496163 1.554022191e-25)
(-0.0119523167 0.007008201035 -8.49305334e-25)
(-0.01713503626 0.007553768977 1.161808715e-24)
(-0.02197534391 0.007294195018 1.306574212e-23)
(-0.0261107507 0.006321893711 1.3913059e-24)
(-0.0292656378 0.004754195561 -7.286144081e-24)
(-0.03122671936 0.002737154073 1.015441256e-23)
(-0.03184199664 0.0004524059566 4.510534505e-24)
(-0.03102759971 -0.00188414603 -6.319377083e-24)
(-0.02879315277 -0.004023030287 2.961346932e-24)
(-0.02527137427 -0.005708353034 3.895699212e-23)
(-0.02073194459 -0.006707406062 -1.954877445e-24)
(-0.01558962571 -0.006854136806 3.754710159e-24)
(-0.01038513441 -0.006097463383 -9.741846987e-23)
(-0.005730272074 -0.004546188687 9.638437702e-23)
(-0.0022333659 -0.002507422941 -3.962348028e-25)
(-0.0001817730612 -0.0005023759674 4.062279168e-25)
(8.343691237e-05 0.0006099238224 0)
(-0.0004188241732 0.002935073493 -2.911027637e-25)
(-0.004647876062 0.008804006938 1.702865349e-23)
(-0.01137195978 0.01324041587 -8.276200684e-24)
(-0.0193272864 0.01579203263 -2.074019775e-25)
(-0.02747410584 0.01652999016 2.037507886e-25)
(-0.03511777028 0.01564440536 6.932667025e-27)
(-0.04171342591 0.01335996634 -1.223727298e-24)
(-0.04683569417 0.009919766192 -4.553368334e-25)
(-0.05014986754 0.005602433941 -1.063270859e-23)
(-0.05141229854 0.0007444248446 0)
(-0.05047791266 -0.004241775016 0)
(-0.04733704366 -0.008887182033 2.671221774e-23)
(-0.04215926216 -0.0126817648 2.813201951e-23)
(-0.03531436159 -0.01513604668 -1.646288501e-24)
(-0.02738995526 -0.01586189004 4.846303075e-23)
(-0.01917005593 -0.01467333695 9.420125226e-23)
(-0.01156090637 -0.01169360143 3.976654437e-23)
(-0.005465410729 -0.007450743368 4.144723158e-25)
(-0.001451097013 -0.002936045541 1.072379421e-25)
(-9.072515568e-05 0.0002258743759 0)
(-0.0005024630982 0.00604534428 -4.249752038e-23)
(-0.006402737509 0.01637074197 -1.693088225e-23)
(-0.01553501823 0.02355931955 8.20304895e-24)
(-0.02627911056 0.02744161095 0)
(-0.03728745235 0.02832100814 0)
(-0.04769035297 0.02658771239 0)
(-0.0567966019 0.02263119104 -4.479912439e-26)
(-0.06405380758 0.0168360831 -2.134565775e-24)
(-0.06901078128 0.009622179163 0)
(-0.07130824663 0.001491051987 1.635866962e-24)
(-0.07070850605 -0.00693649626 2.803047244e-25)
(-0.06713036831 -0.0149301774 -2.810895711e-25)
(-0.06069903352 -0.02166726951 0)
(-0.05180748669 -0.02631604581 4.133681528e-23)
(-0.0411499031 -0.02816069785 -4.682003355e-23)
(-0.02971969397 -0.02677371293 -2.762416571e-23)
(-0.01873716261 -0.02221529839 -3.961814768e-23)
(-0.009488025946 -0.01521921863 7.796028061e-25)
(-0.002976877519 -0.007298194851 9.789465529e-23)
(-0.0002318778906 -0.0008661704503 0)
(-0.000531613506 0.01009501055 4.270418088e-23)
(-0.00798358973 0.02595217843 4.783917461e-25)
(-0.01939686475 0.03642880397 -4.674654351e-25)
(-0.0328238083 0.04185518137 0)
(-0.04664686832 0.04289482942 7.78171232e-25)
(-0.05985226965 0.04020072201 -7.673816048e-25)
(-0.07163288122 0.03434740271 3.671888002e-23)
(-0.08132747473 0.02585663093 1.847772565e-23)
(-0.08836596953 0.01527297833 6.237711459e-24)
(-0.09225465337 0.003246148114 -1.637772769e-24)
(-0.09260375785 -0.009407824443 0)
(-0.08917551913 -0.02167476598 4.37116454e-25)
(-0.08195976153 -0.03236743224 1.009191549e-23)
(-0.07126882875 -0.04021248169 -4.349738251e-23)
(-0.05782016836 -0.04402044463 1.933163561e-24)
(-0.04278581608 -0.04294827756 4.218169557e-23)
(-0.02775449528 -0.03683345723 -3.843248985e-25)
(-0.01455061876 -0.02652720261 0)
(-0.00485945978 -0.01408454282 5.436530645e-23)
(-0.0003641469482 -0.002846955027 -2.564989545e-22)
(-0.0005272218028 0.01499926925 9.840710229e-23)
(-0.009377922547 0.03739020241 -4.907090978e-25)
(-0.02288181726 0.05170220024 0)
(-0.03883041619 0.05894179708 0)
(-0.05538654109 0.060255713 -8.731695929e-23)
(-0.07142873406 0.05661898257 -8.49870129e-23)
(-0.08606650403 0.04880166719 -4.067104015e-23)
(-0.09855081836 0.03743979263 -1.504157274e-23)
(-0.1081944861 0.02315983486 -5.36788477e-24)
(-0.114344426 0.006709682086 -8.174450331e-24)
(-0.1164045741 -0.01093291112 6.600575927e-24)
(-0.113893696 -0.02848943277 8.825767414e-24)
(-0.1065486588 -0.04437043902 -1.892320804e-23)
(-0.09446800741 -0.05675331072 4.604002625e-24)
(-0.0782685429 -0.06378295945 0)
(-0.05922893562 -0.06393492973 -1.573332135e-23)
(-0.03933980713 -0.05653814348 -2.415005655e-26)
(-0.02114188158 -0.04235807861 0)
(-0.007318699887 -0.02398228875 -1.520554773e-22)
(-0.0005216156068 -0.005925545278 6.056089094e-22)
(-0.0004990823208 0.02064573276 -9.773670428e-23)
(-0.01052950605 0.05045435416 2.831900653e-22)
(-0.02582956452 0.06912508061 1.526818436e-22)
(-0.04402136466 0.07849253839 3.619141809e-24)
(-0.06310736462 0.08029472356 -7.319327223e-23)
(-0.08190401615 0.07588039302 9.043132177e-23)
(-0.0994775963 0.06621687888 -3.590090429e-24)
(-0.115022693 0.05201693282 -1.729106702e-24)
(-0.1277518704 0.03392357803 2.524064828e-24)
(-0.1368472107 0.01270233563 7.382117477e-24)
(-0.1414710024 -0.01058780986 -6.50035287e-24)
(-0.1408247698 -0.03446022182 -9.787098928e-24)
(-0.1342745521 -0.05692768828 -3.261737676e-23)
(-0.121544985 -0.07553312866 -3.660915503e-23)
(-0.102967234 -0.08754257043 5.644803768e-25)
(-0.07976367557 -0.09039206335 0)
(-0.05426680944 -0.08244510958 0)
(-0.02987160088 -0.06397734907 -2.905922129e-24)
(-0.01066284819 -0.03798793736 2.970368197e-24)
(-0.0007350931834 -0.01050089332 1.027871847e-22)
(-0.0004479159813 0.02687249538 0)
(-0.01134922746 0.06480753987 2.001976848e-22)
(-0.02801598691 0.08829612707 8.962073637e-23)
(-0.04799855667 0.1001234459 0)
(-0.06920599551 0.102707608 1.569841481e-22)
(-0.09044370023 0.09781574421 0)
(-0.1107831304 0.08661099695 -1.42836738e-22)
(-0.1294093343 0.06983948135 6.515436535e-24)
(-0.1454771187 0.04808231232 0)
(-0.1580351349 0.02201755887 0)
(-0.1660132987 -0.007334424676 -1.374379232e-24)
(-0.1682671097 -0.03838837186 -9.316476723e-25)
(-0.163706426 -0.0688397247 1.491940514e-22)
(-0.1515208365 -0.09558271771 -4.704626402e-23)
(-0.1315134217 -0.1148298231 -2.560854704e-24)
(-0.1045595813 -0.1225702993 1.534605851e-24)
(-0.07309348092 -0.1155517601 -1.558813156e-24)
(-0.04135020468 -0.09283112859 0)
(-0.01525229893 -0.05740766126 3.203741608e-24)
(-0.001044308786 -0.01714714098 -1.012895996e-21)
(-0.0003744661325 0.03346302839 0)
(-0.01175005664 0.07998914674 -1.128251639e-22)
(-0.02920707056 0.1086390412 -6.191068428e-22)
(-0.05031743618 0.1232233422 -3.755266662e-22)
(-0.07296315469 0.1269096491 0)
(-0.09598957664 0.1219255165 4.119416233e-22)
(-0.1185273181 0.1096348267 1.260906469e-22)
(-0.139814608 0.09078243319 -5.58177088e-24)
(-0.1590221186 0.06581391954 5.554144114e-24)
(-0.1751460625 0.03520881281 0)
(-0.1869559603 -0.0001967318388 2.912103678e-23)
(-0.1930172271 -0.03889751597 4.69577409e-24)
(-0.1917809547 -0.07843884791 -1.076788146e-22)
(-0.1817874091 -0.1151864931 8.004016377e-23)
(-0.1620570126 -0.1442598976 -2.419705056e-22)
(-0.1327061744 -0.1598548138 0)
(-0.09577886281 -0.156311244 0)
(-0.05601631927 -0.1302980734 0)
(-0.02147858687 -0.08381132993 0)
(-0.001500384303 -0.02665515667 5.572027036e-22)
(-0.0002873903003 0.04016076021 0)
(-0.01169359469 0.09543607238 -3.492974156e-22)
(-0.02924437761 0.1294073053 8.932714826e-22)
(-0.05060946354 0.1469298543 3.61714029e-22)
(-0.07370081329 0.1519748073 0)
(-0.09745149461 0.1472757441 -3.862516517e-22)
(-0.121106964 0.1344191541 -3.174405259e-23)
(-0.1440324566 0.1141393044 3.333083924e-22)
(-0.1655143 0.08670005292 1.769463801e-22)
(-0.1846248278 0.05229123614 -4.060128057e-23)
(-0.2001325564 0.01141717701 1.656820856e-23)
(-0.2104622197 -0.03471421372 -8.26518031e-24)
(-0.2137208284 -0.08376559759 3.371835836e-22)
(-0.2078215256 -0.131875588 0)
(-0.1908238301 -0.1732755615 2.420874062e-22)
(-0.1616335525 -0.2002592854 5.774646432e-24)
(-0.1211662519 -0.2040121196 -5.860763492e-24)
(-0.07384988667 -0.1772119532 1.548403902e-22)
(-0.02971786328 -0.1188642052 -5.435324452e-24)
(-0.002179544727 -0.0400539784 0)
(-0.0002117206931 0.04671638213 0)
(-0.01125001185 0.1105497691 0)
(-0.02815624422 0.1497354416 -5.022714991e-22)
(-0.04874479073 0.1701516958 -1.880984351e-23)
(-0.07100086225 0.1766256523 2.038365694e-23)
(-0.09399450949 0.1724525969 -2.014298345e-23)
(-0.1171434237 0.1594870566 -2.316870881e-23)
(-0.1400179437 0.1384804802 -3.029804304e-22)
(-0.1621328822 0.1095160583 6.698615429e-23)
(-0.1827958968 0.07245187105 4.513150497e-23)
(-0.2009835489 0.02734930344 -4.577692995e-23)
(-0.2152270195 -0.02508695041 0)
(-0.2235562138 -0.08298347609 -7.839573396e-23)
(-0.223463211 -0.1427256873 0)
(-0.2120679328 -0.1981820363 -3.739539526e-22)
(-0.1867434432 -0.2400773145 5.244910214e-22)
(-0.1464438189 -0.256077287 0)
(-0.09394566819 -0.2331209032 -1.493951359e-22)
(-0.04022000514 -0.1639613333 1.937506717e-22)
(-0.003201099748 -0.05861061974 -3.411486461e-22)
(-0.0002015417191 0.05297583322 0)
(-0.01067262177 0.1248171962 9.182827307e-22)
(-0.02628447164 0.1687424007 -2.440672358e-23)
(-0.04501108402 0.1916454508 9.193294121e-22)
(-0.06494598173 0.1992920441 -2.512073027e-23)
(-0.08536629317 0.1956103785 2.838831746e-23)
(-0.1059305741 0.1827886432 -2.812917919e-23)
(-0.1264924295 0.1616583241 -1.660911726e-23)
(-0.146899697 0.1321762182 -5.260209797e-22)
(-0.1668458292 0.09389646869 -8.906596244e-24)
(-0.1857303167 0.04640577799 9.660162655e-24)
(-0.2024781829 -0.01023782179 3.313068373e-22)
(-0.2154154745 -0.07499816885 -5.820719657e-22)
(-0.2220209821 -0.1450311423 0)
(-0.2188032169 -0.2146760147 8.887281565e-22)
(-0.2016257543 -0.2740015912 -4.940845508e-22)
(-0.1668639169 -0.3075811433 -1.572209796e-23)
(-0.114022005 -0.2953811426 0)
(-0.0528848166 -0.2195802216 -1.890141147e-22)
(-0.004749187614 -0.08377276543 3.360544986e-22)
(-0.0003641993053 0.05902316194 1.551004025e-23)
(-0.01049574426 0.1379881107 -8.764157002e-22)
(-0.02441390498 0.1856803565 -1.1570547e-21)
(-0.04026725815 0.2101384158 -8.628945726e-22)
(-0.0563073136 0.2182348337 0)
(-0.07214858645 0.2146189774 3.513793232e-23)
(-0.08779224052 0.2018791579 -7.294842824e-23)
(-0.1034563066 0.1810005375 5.86786701e-23)
(-0.1193984176 0.1518997152 3.021357275e-22)
(-0.1357931872 0.1139150613 -1.128192723e-23)
(-0.1526082659 0.06621426524 0)
(-0.1694521714 0.008177227967 -3.603919431e-22)
(-0.1852760922 -0.06015984578 7.515649488e-22)
(-0.1980448809 -0.1372746651 8.831683122e-22)
(-0.2043546502 -0.2189261488 -5.296606614e-22)
(-0.1990977779 -0.2959712478 5.162669342e-22)
(-0.1760605419 -0.3514072128 1.078219865e-23)
(-0.1300890655 -0.3584150331 -1.095534696e-23)
(-0.06688803186 -0.2843276144 -8.215756503e-23)
(-0.007083319507 -0.116996426 0)
(-0.0009095784994 0.06540040332 -1.91148064e-23)
(-0.01167592374 0.1502816077 -1.326961659e-21)
(-0.02388883426 0.2000659089 1.094233353e-21)
(-0.03601342483 0.2244216438 6.734907911e-22)
(-0.04657311431 0.231658773 6.014612551e-22)
(-0.05577041748 0.2272393255 6.643937335e-22)
(-0.06411249481 0.2141774548 -4.458665965e-23)
(-0.07227565784 0.1936494187 -3.461328979e-22)
(-0.08096977397 0.1656028259 2.152157698e-22)
(-0.09087196962 0.1292707419 0)
(-0.1025547926 0.08353084094 0)
(-0.1163622626 0.02720013053 2.655392045e-22)
(-0.1321590011 -0.04062003243 8.194328819e-23)
(-0.1489252734 -0.1200128006 -2.821614476e-22)
(-0.1641284641 -0.208930037 -5.411259285e-23)
(-0.1727877901 -0.3006992167 1.301951136e-22)
(-0.1670311494 -0.3793328737 -3.40048287e-22)
(-0.1365292533 -0.4136451591 -1.594058132e-23)
(-0.08018250337 -0.3538325867 8.204528581e-23)
(-0.01050762279 -0.1594130407 -6.032203654e-22)
(-0.00226049941 0.07348882704 0)
(-0.01580356447 0.1626521519 2.145868656e-21)
(-0.02665044256 0.2117904359 0)
(-0.03422342218 0.2333946833 -1.351803743e-21)
(-0.03759401954 0.2377766391 6.184052563e-23)
(-0.03799689438 0.2312553146 -6.193076176e-22)
(-0.03668270671 0.217189873 -4.756271917e-22)
(-0.0348904154 0.1968934335 8.301234984e-22)
(-0.03378843379 0.1703342348 -1.885693885e-22)
(-0.03449881998 0.136722115 0)
(-0.0381157823 0.0947967522 0)
(-0.04564997787 0.04304288752 2.410615985e-23)
(-0.05790809403 -0.02013778767 -6.007187555e-22)
(-0.07514603271 -0.09620647694 -4.309558432e-22)
(-0.09645179182 -0.1855555926 4.63785282e-22)
(-0.1183462963 -0.2853567527 -6.488713759e-22)
(-0.1332715639 -0.3838386277 9.119927887e-23)
(-0.1265351139 -0.4504358441 2.937556293e-23)
(-0.08899154604 -0.4198536107 5.660464837e-22)
(-0.01526917959 -0.2111719583 6.020836313e-22)
(-0.005180900379 0.08598045536 0)
(-0.02525551526 0.1766291028 1.465579694e-22)
(-0.03483409798 0.2205961283 -4.917131383e-23)
(-0.03640016753 0.2354859016 7.642907969e-22)
(-0.03018486901 0.2343406411 -7.005356645e-22)
(-0.01916584104 0.2241603581 4.746467601e-23)
(-0.005615202601 0.2083525618 -1.018606778e-22)
(0.008569551607 0.1881240959 -3.389880485e-22)
(0.02179880356 0.1633911244 2.062818116e-22)
(0.03262775701 0.1333242798 0)
(0.03958452989 0.09664087565 0)
(0.04117008012 0.05174058283 -2.902662665e-22)
(0.03578478943 -0.003255377578 0)
(0.02198180233 -0.07058358827 -5.512177339e-22)
(-0.001264885447 -0.1525735322 -1.492374687e-23)
(-0.03310473199 -0.250594968 2.55972815e-23)
(-0.06909238468 -0.3599341353 2.203121635e-22)
(-0.09227828738 -0.4575424367 4.788220844e-24)
(-0.08718090627 -0.4698129236 -5.789434664e-22)
(-0.02103127221 -0.269897218 0)
(-0.01111631589 0.1085974965 0)
(-0.04248902528 0.1947151598 -8.848460528e-22)
(-0.04795530545 0.2258195349 -5.411028211e-22)
(-0.03919538605 0.2282135337 4.543804907e-22)
(-0.01877833935 0.2182327898 -1.709985779e-24)
(0.007664269195 0.2028220136 -4.561036145e-23)
(0.03667988333 0.18476196 5.696666007e-22)
(0.06582993165 0.1647118113 -2.766883665e-23)
(0.09327125357 0.1423128154 -2.069777012e-22)
(0.1173891066 0.1166274985 3.142206889e-23)
(0.1365461174 0.08641144927 -3.425910635e-23)
(0.1489668795 0.05017670438 -3.690587808e-23)
(0.1525275357 0.006159182663 3.205627967e-22)
(0.1449366659 -0.04796125499 6.119595282e-22)
(0.1235159468 -0.1153052776 -5.101160684e-22)
(0.08633530763 -0.2004195543 -1.616048555e-22)
(0.0319908695 -0.3067806507 1.53131772e-22)
(-0.02362124831 -0.4239837059 7.293665882e-23)
(-0.06492413734 -0.4871612692 1.913293558e-21)
(-0.02509971797 -0.3291544668 2.954993663e-21)
(-0.02004680432 0.1460727415 -4.390201361e-23)
(-0.06416406536 0.2112955843 4.417374073e-23)
(-0.05070231539 0.2177300412 1.000186568e-21)
(-0.01934099123 0.2014679871 -8.270486398e-24)
(0.02414462316 0.1809076043 0)
(0.07154118655 0.1606933214 4.363709361e-23)
(0.1190703004 0.1416495385 -2.273845387e-22)
(0.1644766891 0.1233181753 -9.027932405e-23)
(0.2062250702 0.1048117273 3.680725318e-23)
(0.2429642574 0.08507140343 -1.701651632e-23)
(0.2732207158 0.06296148318 3.429963936e-23)
(0.2952535732 0.03726294719 -6.592668935e-23)
(0.306697073 0.006535078224 -9.303892905e-23)
(0.3049738033 -0.03087769071 1.517040604e-22)
(0.286393602 -0.07786290151 0)
(0.24705679 -0.1399300312 1.50560037e-22)
(0.1810922085 -0.2266299726 2.560015081e-22)
(0.09604449117 -0.3443894914 0)
(-0.006697621656 -0.4552210182 -3.675638029e-21)
(-0.01922408296 -0.3777537554 -2.892623064e-21)
(-0.02591951235 0.2276828815 -9.514199721e-22)
(-0.03998324472 0.2238216538 -1.388974543e-22)
(0.03656136802 0.1810585344 -2.335576867e-22)
(0.109050299 0.1451059055 -1.193739229e-22)
(0.1817191077 0.1172445442 -4.295815083e-23)
(0.249009055 0.09627907074 9.783149581e-23)
(0.3100336462 0.0800250995 -1.408587852e-22)
(0.364620905 0.06656815042 1.297171761e-22)
(0.4126252189 0.05449178818 -8.620099628e-23)
(0.4536249993 0.04270895071 1.132184424e-25)
(0.4867878436 0.03032298745 1.527738785e-23)
(0.510745111 0.01652902299 7.99719003e-23)
(0.5236597245 0.0005365189155 -1.811120323e-22)
(0.5231797852 -0.01863372812 -1.617142723e-22)
(0.50523233 -0.04286478604 -4.262930716e-23)
(0.4658714996 -0.07633230962 0)
(0.3952696434 -0.1286089377 -1.846483623e-22)
(0.2916071 -0.2208468096 8.148769668e-22)
(0.1197455076 -0.35250169 1.631602603e-21)
(0.02670547186 -0.3775497974 2.172656417e-21)
(0.2142894479 0.1347447212 9.864984158e-22)
(0.2776311215 0.09870503598 0)
(0.4316592321 0.05810414841 -2.594316361e-22)
(0.5304749359 0.03846264951 -1.741662387e-22)
(0.6016965733 0.02623419095 0)
(0.6571198906 0.01831923452 -6.009071787e-23)
(0.7015213517 0.01313600836 6.377980827e-23)
(0.7376042389 0.009542126472 -1.800151265e-23)
(0.7669368293 0.00680446402 2.885966102e-23)
(0.7902106561 0.00446474457 2.315027608e-23)
(0.8074554899 0.002221320703 0)
(0.8182621264 -0.0001500740433 -2.87302717e-23)
(0.821649965 -0.002723847362 0)
(0.8162394158 -0.005712667979 2.738139469e-23)
(0.7991333131 -0.009611382436 1.4216804e-23)
(0.7679986342 -0.01500255095 -5.79941524e-23)
(0.7106555757 -0.02502519971 -2.535664563e-22)
(0.6235183981 -0.04204285428 -6.918106637e-22)
(0.4230091019 -0.09182968102 0)
(0.2705674689 -0.1524021842 -2.119484269e-21)
)


// ************************************************************************* //
