/*--------------------------------*- C++ -*----------------------------------*\
  =========                 |
  \\      /  F ield         | OpenFOAM: The Open Source CFD Toolbox
   \\    /   O peration     | Website:  https://openfoam.org
    \\  /    A nd           | Version:  13
     \\/     M anipulation  |
\*---------------------------------------------------------------------------*/
FoamFile
{
    format      ascii;
    class       volScalarField;
    location    "1";
    object      p;
}
// * * * * * * * * * * * * * * * * * * * * * * * * * * * * * * * * * * * * * //

dimensions      [0 2 -2 0 0 0 0];

internalField   nonuniform List<scalar> 
100
(
1.5859e-09
0.000785345
0.00262972
0.00546763
0.00894951
0.0126535
0.0161354
0.0189733
0.0208177
0.021603
-0.000784361
6.93587e-05
0.0020381
0.00508414
0.00881724
0.0127857
0.0165189
0.0195649
0.0215336
0.0223874
-0.00285458
-0.00179994
0.000540397
0.00412447
0.0084878
0.0131152
0.0174785
0.0210626
0.0234029
0.0244576
-0.00668135
-0.00525383
-0.00219806
0.00238708
0.00789475
0.0137082
0.0192159
0.023801
0.0268568
0.0282843
-0.0128562
-0.0107311
-0.00645644
-0.000268241
0.00699719
0.0146058
0.0218712
0.0280594
0.0323341
0.0344592
-0.0224286
-0.0189174
-0.0125992
-0.00398764
0.00576009
0.0158429
0.0255906
0.0342022
0.0405203
0.0440316
-0.0372893
-0.0307486
-0.0209486
-0.00880745
0.00419723
0.0174058
0.0304104
0.0425516
0.0523516
0.0588923
-0.0609281
-0.0471663
-0.0313953
-0.0144011
0.00245226
0.0191507
0.0360041
0.0529983
0.0687693
0.0825311
-0.0994835
-0.0678493
-0.0424424
-0.0196571
0.000905519
0.0206975
0.0412601
0.0640454
0.0894523
0.121086
-0.173268
-0.094334
-0.0524298
-0.0234416
-9.23199e-05
0.0216953
0.0450446
0.0740328
0.115937
0.194871
)
;

boundaryField
{
    movingWall
    {
        type            zeroGradient;
    }
    fixedWalls
    {
        type            zeroGradient;
    }
    frontAndBack
    {
        type            empty;
    }
}


// ************************************************************************* //
