/*--------------------------------*- C++ -*----------------------------------*\
  =========                 |
  \\      /  F ield         | OpenFOAM: The Open Source CFD Toolbox
   \\    /   O peration     | Website:  https://openfoam.org
    \\  /    A nd           | Version:  13
     \\/     M anipulation  |
\*---------------------------------------------------------------------------*/
FoamFile
{
    format      ascii;
    class       volScalarField;
    location    "24";
    object      p;
}
// * * * * * * * * * * * * * * * * * * * * * * * * * * * * * * * * * * * * * //

dimensions      [0 2 -2 0 0 0 0];

internalField   nonuniform List<scalar> 
400
(
1.165548578e-06
-0.0005461082807
-0.0008881135117
-0.001015547885
-0.0009366414168
-0.0006837568187
-0.0002944604636
0.0001952720995
0.0007489290913
0.001326025567
0.001880909409
0.002360713783
0.002710045795
0.002875823484
0.002816528535
0.002514171752
0.001989212938
0.001298777414
0.0006399109417
4.404931353e-05
0.0005894259806
8.194686255e-06
-0.0003555036498
-0.0004977923721
-0.0004670875736
-0.0002899645854
4.178916093e-06
0.0003860456052
0.0008242343041
0.001281496261
0.001717996239
0.002082578679
0.002324863742
0.002397479775
0.002266557618
0.001923329613
0.001394544203
0.0007452491817
0.0001476598551
-0.000514993333
0.0009536200888
0.0003092954716
-9.190529307e-05
-0.0002382033475
-0.0002320464375
-0.0001034954748
0.0001234068206
0.0004273563783
0.0007846088267
0.001163165129
0.001531213503
0.001834657751
0.002023567307
0.00204921662
0.00187646426
0.00149548933
0.0009302693821
0.0002373598443
-0.0004610573552
-0.00129798097
0.0009772938618
0.0002592100002
-0.0001909668785
-0.0003432109052
-0.0003524280784
-0.0002553988526
-7.275074577e-05
0.0001829224486
0.0004980671749
0.0008524305783
0.001204837554
0.001512357702
0.001714206656
0.001749860497
0.001570451252
0.001152587939
0.0005080865839
-0.0003163202409
-0.001231588344
-0.002382308267
0.0004816546854
-0.0002837635593
-0.0007625968912
-0.0009142306996
-0.0009351832068
-0.0008666842712
-0.0007237037966
-0.0005066917247
-0.0002153653315
0.00014102017
0.000532027754
0.0009093820797
0.001201865456
0.001328601294
0.001213182512
0.0008024142885
8.224476607e-05
-0.0009152691244
-0.002125173281
-0.003653574615
-0.0006850945308
-0.001465819074
-0.001954809216
-0.002105795707
-0.002148482019
-0.002125023385
-0.002040529727
-0.001877800182
-0.001615587697
-0.001243469103
-0.0007769845153
-0.0002606745561
0.0002228419586
0.0005637425258
0.0006401255396
0.0003438666065
-0.0003906270607
-0.001561581148
-0.003132271032
-0.005139387945
-0.0026604008
-0.003422051563
-0.00391385955
-0.004079167499
-0.004176427762
-0.004245341194
-0.00427620434
-0.004226997739
-0.004045261555
-0.003687204074
-0.003138278504
-0.002424239704
-0.001630983967
-0.0009009219002
-0.0004223231528
-0.0003961849802
-0.0009857005335
-0.00225797378
-0.004230033119
-0.006825474741
-0.005553370425
-0.006268245212
-0.006766465663
-0.006980322541
-0.007193576915
-0.007441298928
-0.007694804651
-0.007879669081
-0.007899457111
-0.007657762725
-0.007084414337
-0.006156526162
-0.004940798883
-0.003601979791
-0.002411125829
-0.001711775133
-0.001840491312
-0.00301227795
-0.005365623199
-0.008659273927
-0.009433291563
-0.01007960528
-0.0105964049
-0.01090852881
-0.01132375612
-0.01187341603
-0.01250853947
-0.01311665795
-0.01354458728
-0.01361998022
-0.01317899424
-0.01211761712
-0.01042457686
-0.008253228705
-0.005953160183
-0.004058898039
-0.003187283079
-0.003840226911
-0.006423568974
-0.01048862299
-0.01431470717
-0.01487370983
-0.01542063663
-0.0158797433
-0.01658736416
-0.01757721791
-0.01878376741
-0.02005558676
-0.02117379317
-0.02186962963
-0.02185327969
-0.02086813866
-0.01876787832
-0.01561622551
-0.01179143732
-0.008033960685
-0.005356747523
-0.00475714624
-0.007178178238
-0.0119761588
-0.02015185322
-0.02060212175
-0.02117226051
-0.02179411715
-0.02284922593
-0.02438715993
-0.02633566659
-0.02850969337
-0.03062331643
-0.03229900735
-0.03309062297
-0.03253605283
-0.03027793422
-0.02617434688
-0.02052083901
-0.01420020827
-0.008688143991
-0.005723458178
-0.007216204167
-0.01246331278
-0.02685355282
-0.02715937915
-0.02769977962
-0.02842005091
-0.02978599581
-0.03188559004
-0.03465498403
-0.03788536151
-0.04122931563
-0.04420020239
-0.046183156
-0.04647382774
-0.04445824652
-0.03965543104
-0.03211673644
-0.02269482912
-0.01326301227
-0.006482690731
-0.005805572525
-0.0107622176
-0.03433165312
-0.03441516009
-0.03478648837
-0.0354014469
-0.03688851818
-0.03940633582
-0.04291599026
-0.04719324355
-0.05183532121
-0.05625343446
-0.05967472524
-0.06118594637
-0.05977477061
-0.05465128859
-0.04543688743
-0.03269587472
-0.01844960787
-0.006242737539
-0.001671026488
-0.004870804412
-0.04260663032
-0.04227633168
-0.04219258549
-0.04229282594
-0.04351036881
-0.04611276038
-0.050095615
-0.05521603759
-0.06101044211
-0.06679141036
-0.07163537071
-0.07440843231
-0.07382826713
-0.06867091547
-0.05806831278
-0.04205848881
-0.02243697492
-0.003254389477
0.007349671775
0.008343862936
-0.05200709261
-0.05075790263
-0.04967482158
-0.04857591475
-0.0489236335
-0.05111679326
-0.0551691492
-0.06079219054
-0.06743125691
-0.07428553989
-0.08027851056
-0.08407221972
-0.08412703031
-0.07883432977
-0.06683997634
-0.04752087064
-0.02212510603
0.005504009387
0.02471746715
0.03352930754
-0.06365279384
-0.06018626361
-0.05709456838
-0.05376170347
-0.05246277205
-0.05367720137
-0.05736167098
-0.06313464881
-0.07025885158
-0.07779726178
-0.08448909871
-0.08878264471
-0.08889546761
-0.08283720857
-0.06884874716
-0.04561907766
-0.01374997421
0.02441842348
0.05554112333
0.07735724955
-0.08018361171
-0.07107235802
-0.06411882956
-0.05716329169
-0.05342943458
-0.05321329773
-0.05625670524
-0.06191138541
-0.06925627706
-0.07711420736
-0.08400962777
-0.08814943853
-0.08747833105
-0.07965468074
-0.06247806322
-0.03404938005
0.00556556867
0.05859525806
0.1058240655
0.1480687297
-0.1105053808
-0.08585290465
-0.07160514283
-0.05897035526
-0.0519127574
-0.04988225262
-0.05210168477
-0.05750745345
-0.06485799467
-0.07270678676
-0.07933834504
-0.08271200279
-0.08051830855
-0.06988573031
-0.04823134126
-0.01272180476
0.03823670336
0.1071327083
0.1779792658
0.2564770763
-0.168435904
-0.09990739416
-0.07500783605
-0.05479765426
-0.04461875869
-0.04158501911
-0.04371724775
-0.04938076749
-0.05701611254
-0.06496955307
-0.07136050877
-0.07397907094
-0.07012830204
-0.05701239731
-0.03102754082
0.01193006698
0.07559997699
0.1664046654
0.2761624261
0.4377047375
-0.3984271914
-0.1380985949
-0.07497008317
-0.04708834524
-0.03354940617
-0.03002995738
-0.03280176823
-0.03926416809
-0.04755763151
-0.05593802414
-0.06249908414
-0.06502839907
-0.06099403968
-0.04696835341
-0.01875564773
0.02993631427
0.1069562821
0.2334277509
0.419880676
0.780023886
)
;

boundaryField
{
    movingWall
    {
        type            zeroGradient;
    }
    fixedWalls
    {
        type            zeroGradient;
    }
    frontAndBack
    {
        type            empty;
    }
}


// ************************************************************************* //
