/*--------------------------------*- C++ -*----------------------------------*\
  =========                 |
  \\      /  F ield         | OpenFOAM: The Open Source CFD Toolbox
   \\    /   O peration     | Website:  https://openfoam.org
    \\  /    A nd           | Version:  13
     \\/     M anipulation  |
\*---------------------------------------------------------------------------*/
FoamFile
{
    format      ascii;
    class       scalarField;
    location    "24";
    object      p_all;
}
// * * * * * * * * * * * * * * * * * * * * * * * * * * * * * * * * * * * * * //


400
(
-2.443680712e-09
-0.0005019061594
-0.00110633042
-0.00156286948
-0.00175565208
-0.001638194332
-0.001189470477
-0.0004023787959
0.000710936233
0.002105623428
0.003690461275
0.005322037528
0.006814604911
0.007969065885
0.008619498155
0.008686197755
0.008217552163
0.007405299996
0.006561676223
0.00602653343
0.0005076660708
-1.150257908e-05
-0.0005410152729
-0.0009025051431
-0.001040006243
-0.0009282274513
-0.0005495419849
0.0001070136607
0.001037975944
0.002212312322
0.003558028709
0.004955776931
0.006245529567
0.007252435195
0.007828792673
0.007902492059
0.007513462429
0.006820062119
0.006068742125
0.005523174437
0.001135605962
0.0004818878234
-7.788085123e-05
-0.0004087767028
-0.0005322023896
-0.0004552186282
-0.0001663334011
0.0003521903653
0.001111595265
0.002100642723
0.003269095372
0.004517209128
0.005698604339
0.006642674932
0.007196210918
0.007273888744
0.006896483268
0.006192348348
0.005357755223
0.004645425042
0.001579156109
0.0007346968271
6.607669921e-05
-0.0003053621149
-0.000470381677
-0.0004675383471
-0.0002898800069
9.098926048e-05
0.0007064580548
0.001569988146
0.002654646316
0.003875747254
0.005087405963
0.006101515836
0.006731383392
0.006850797113
0.006443885368
0.005612670475
0.004538278323
0.003533918274
0.00160022816
0.0005611607127
-0.0002420570879
-0.0006946338208
-0.0009463245965
-0.001060430847
-0.001029179396
-0.0008080322111
-0.0003392907406
0.0004218517516
0.001477746197
0.002761897619
0.004125719151
0.005350871614
0.006193509297
0.006455445873
0.006055570655
0.005058257138
0.003650025282
0.002260172361
0.001003042485
-0.0002119602317
-0.001152793042
-0.001713179133
-0.00209368535
-0.002375292557
-0.002543660748
-0.002532288946
-0.00224986633
-0.001610354605
-0.0005696637564
0.0008368261741
0.002466120777
0.004066274173
0.005315001795
0.005902825143
0.005636122074
0.004506076116
0.002703854555
0.0008314048478
-0.0003788668703
-0.001741056488
-0.002814916128
-0.003507200573
-0.004062977478
-0.004575649078
-0.005020352445
-0.005304007051
-0.005294006834
-0.004849932264
-0.003866036019
-0.00232241293
-0.0003324517109
0.00182905413
0.003746718096
0.004952287384
0.005066466286
0.003933367888
0.001713636582
-0.0007529970664
-0.002677908218
-0.004152472806
-0.00535156472
-0.006200095186
-0.006983132423
-0.007804250812
-0.008627426207
-0.009331217368
-0.009735425551
-0.009630691246
-0.008823877515
-0.007201811126
-0.004806147389
-0.001900136608
0.00101192441
0.003256683172
0.004168159634
0.003313267229
0.0007259267001
-0.002450209737
-0.005982336269
-0.007529747852
-0.008841749286
-0.009866330253
-0.01092677665
-0.01213881213
-0.01345919065
-0.01474077967
-0.01575330652
-0.01620599712
-0.01579064817
-0.01425482348
-0.01150571984
-0.007728970421
-0.003476526399
0.0003508389799
0.002684635193
0.002615707395
-0.0001451017582
-0.004114692439
-0.01032704063
-0.01190332832
-0.01330466902
-0.01450637897
-0.0158734228
-0.01754152472
-0.01946950852
-0.0214925341
-0.02333366448
-0.02461475097
-0.02489046469
-0.0237231475
-0.02081252583
-0.01616817974
-0.01029479465
-0.004283467779
0.0003030674506
0.001823140832
-0.0006699123549
-0.005413463361
-0.01569225283
-0.01724770996
-0.01869002625
-0.02002568446
-0.02167530429
-0.02381076352
-0.02640744133
-0.02929509019
-0.03215928323
-0.03453754845
-0.03583821006
-0.03540662291
-0.03266916659
-0.02734556729
-0.01974505616
-0.01101932477
-0.003228248606
0.0009961795647
-0.0004268990072
-0.00569582384
-0.0220194848
-0.02349307721
-0.0248800166
-0.02622437261
-0.02803662558
-0.03055252336
-0.03378194932
-0.03756199808
-0.04155168927
-0.04521406883
-0.04781749
-0.04848542008
-0.04632383587
-0.04067659287
-0.03148457415
-0.01973500201
-0.007833875331
0.0004442896683
0.001334182028
-0.003794489224
-0.02925702347
-0.03055829426
-0.03170608381
-0.0328017583
-0.03451562921
-0.03718911791
-0.04088329444
-0.04544848248
-0.05052164593
-0.05549977558
-0.05952475534
-0.06151158142
-0.06025672549
-0.05467753488
-0.04421218897
-0.02941791222
-0.01272529712
0.001029597957
0.005930464868
0.002262513109
-0.03745835046
-0.03841234322
-0.0389774625
-0.03937278769
-0.04055225128
-0.04301400318
-0.04687459227
-0.0519858716
-0.05795016093
-0.06409342792
-0.06943896224
-0.07271604048
-0.07244286426
-0.06713056773
-0.05566679005
-0.03797053537
-0.01607654265
0.004517111268
0.01558356226
0.0156166971
-0.04698323109
-0.04717618228
-0.04651454625
-0.04548960226
-0.04551951341
-0.04729036749
-0.05094294878
-0.05628830266
-0.06285528298
-0.06987123488
-0.07622899986
-0.08048045857
-0.08089640251
-0.07563531302
-0.06308044991
-0.04244930213
-0.01501344863
0.01375161335
0.03367182249
0.04080612543
-0.058844271
-0.05729323755
-0.05419616007
-0.05068015446
-0.04881033636
-0.04939042081
-0.05248124642
-0.05776981068
-0.06464342642
-0.07218111652
-0.07911011856
-0.08378749487
-0.08424067412
-0.07830898879
-0.06394420474
-0.03973231289
-0.006012724076
0.03252566396
0.06462428188
0.08332446717
-0.07529224771
-0.06984322304
-0.06199427271
-0.0544815298
-0.04992931582
-0.04891799264
-0.05121629343
-0.05625901728
-0.06321060996
-0.0709395491
-0.07796491284
-0.08241730276
-0.08205717671
-0.07438196231
-0.05690103766
-0.02759504151
0.01416755249
0.06515810925
0.1140933418
0.1498446854
-0.1034392288
-0.08732451957
-0.06960551025
-0.05607888239
-0.04821240528
-0.04546046238
-0.04697480824
-0.05178400886
-0.05873607008
-0.0664513925
-0.07323109372
-0.07697145353
-0.07515602028
-0.06488735421
-0.04308458249
-0.006829582393
0.04593354111
0.1145957834
0.1908761744
0.2576761124
-0.1753951952
-0.1144068742
-0.07344171326
-0.05189895126
-0.04122067626
-0.03745692881
-0.03887000132
-0.04398552162
-0.05127867908
-0.05915746697
-0.06580152628
-0.06895170735
-0.06589317378
-0.05338559623
-0.02765335844
0.01569232767
0.08174282002
0.1763275826
0.3043097655
0.4519468271
-0.3552715727
-0.1547865904
-0.07021013797
-0.04276672108
-0.03137824014
-0.02749191133
-0.02941084557
-0.03529757944
-0.04328545178
-0.05163732913
-0.05848691664
-0.06158502743
-0.05818607266
-0.04492550117
-0.01742241964
0.030277497
0.1076664863
0.2325271507
0.4339849641
0.735125718
)


// ************************************************************************* //
