/*--------------------------------*- C++ -*----------------------------------*\
  =========                 |
  \\      /  F ield         | OpenFOAM: The Open Source CFD Toolbox
   \\    /   O peration     | Website:  https://openfoam.org
    \\  /    A nd           | Version:  13
     \\/     M anipulation  |
\*---------------------------------------------------------------------------*/
FoamFile
{
    format      ascii;
    class       surfaceScalarField;
    location    "24";
    object      phi;
}
// * * * * * * * * * * * * * * * * * * * * * * * * * * * * * * * * * * * * * //

dimensions      [0 3 -1 0 0 0 0];

internalField   nonuniform List<scalar> 
760
(
-1.322497198e-05
1.321213753e-05
-7.201717896e-05
5.879220884e-05
-0.0001620640581
9.004687782e-05
-0.0002652056
0.0001031415904
-0.0003682171456
0.0001030116175
-0.000461472166
9.325502994e-05
-0.0005377129625
7.624071145e-05
-0.0005912026479
5.34895707e-05
-0.000617470083
2.626739327e-05
-0.0006135529528
-3.917054455e-06
-0.0005784289138
-3.512389779e-05
-0.0005138188996
-6.460989733e-05
-0.000424643915
-8.917495219e-05
-0.0003192745395
-0.0001053694185
-0.0002092254064
-0.0001100491929
-0.0001081436346
-0.0001010817962
-2.993215343e-05
-7.821146088e-05
1.414304839e-05
-4.407516192e-05
2.190613544e-05
-7.763053257e-06
2.190615641e-05
-6.870121249e-05
8.191335805e-05
-0.0002457590538
0.000235850082
-0.0004934355127
0.0003377232907
-0.0007722166347
0.0003819226377
-0.001050325555
0.0003811205577
-0.001302903118
0.0003458327487
-0.001510487339
0.0002838251329
-0.001657748124
0.0002007504577
-0.001733075689
0.0001015948963
-0.001729188657
-7.804242595e-06
-0.001643728036
-0.0001205846456
-0.001481329378
-0.0002270085699
-0.001254318903
-0.0003161853346
-0.0009832541355
-0.000376434064
-0.0006961209281
-0.0003971823178
-0.0004257262253
-0.0003714764718
-0.0002049971601
-0.0002989405233
-5.981855118e-05
-0.0001892537614
-4.955304248e-07
-6.708605333e-05
2.141064788e-05
-0.0001229247884
0.0002048381461
-0.0004149374937
0.0005278628765
-0.0008085985893
0.0007313844539
-0.001247057628
0.0008203816386
-0.001684517857
0.0008185806724
-0.002084255978
0.0007455707838
-0.002416769065
0.0006163382494
-0.002658367463
0.0004423489899
-0.002790781671
0.0002340092513
-0.002802212434
3.626596635e-06
-0.002687720561
-0.0002350765314
-0.002452807313
-0.0004619218758
-0.002114049729
-0.0006549429552
-0.001700286203
-0.0007901975741
-0.001251766312
-0.000845702158
-0.0008167153131
-0.0008065274202
-0.0004446126775
-0.0006710431245
-0.0001762312362
-0.0004576351806
-3.221334622e-05
-0.0002111039254
-1.08026803e-05
-0.0001720629692
0.0003769010768
-0.0005725089761
0.00092830889
-0.001105868303
0.001264743884
-0.001697885751
0.001412399194
-0.00229039778
0.001411092734
-0.002837013833
0.001292186781
-0.003299946015
0.001079270345
-0.003648002825
0.0007904057635
-0.003856045417
0.0004420518861
-0.003905532802
5.311406939e-05
-0.003787486381
-0.0003531228746
-0.003503796174
-0.0007456120496
-0.00307108399
-0.001087655141
-0.002522486353
-0.001338795215
-0.001907895263
-0.001460293232
-0.001290843574
-0.001423579076
-0.0007407228747
-0.001221163785
-0.000320259687
-0.0008780983347
-7.110066172e-05
-0.0004602629264
-8.190332712e-05
-0.0002170021915
0.0005939032787
-0.0007187681819
0.001430074796
-0.001385532469
0.001931508152
-0.002126938203
0.002153804988
-0.00287412997
0.0021582846
-0.00357290076
0.001990957641
-0.004178646426
0.001685016019
-0.004653227547
0.00126498685
-0.004963833417
0.0007526577281
-0.005083659507
0.00017294017
-0.004994687368
-0.0004420949675
-0.004690887936
-0.001049411426
-0.004183262174
-0.001595280864
-0.003504185555
-0.002017871814
-0.002710299831
-0.002254178941
-0.001881478871
-0.002252400013
-0.001113177723
-0.001989464902
-0.0005007975857
-0.001490478436
-0.0001191369625
-0.0008419235183
-0.0002010402753
-0.0002573442913
0.0008512476449
-0.0008512669572
0.002023997457
-0.001642159085
0.002722400226
-0.002526350697
0.003037996566
-0.003426628867
0.00305856279
-0.004283059512
0.00284738835
-0.005045841067
0.002447797641
-0.005670614843
0.001889760662
-0.006116334687
0.001198377578
-0.006345568104
0.0004021735844
-0.006327448333
-0.0004602147244
-0.006042114636
-0.001334745089
-0.005488008182
-0.002149387276
-0.004689722215
-0.002816157744
-0.003705529229
-0.003238371899
-0.002631046814
-0.003326882402
-0.001594146415
-0.003026365272
-0.000736350797
-0.00234827402
-0.0001821116998
-0.00139616258
-0.0003831519594
-0.0002911615469
0.001142409222
-0.0009640515209
0.002696887515
-0.001864023922
0.003622372652
-0.002877935022
0.00405190765
-0.003923186116
0.004103813863
-0.004936663575
0.003860865817
-0.005865503202
0.00337663731
-0.006660582998
0.002684840513
-0.007273002639
0.001810797263
-0.007653534036
0.0007827050077
-0.007755379903
-0.0003583688385
-0.00753939109
-0.001550733874
-0.006983672477
-0.002705105852
-0.006095513734
-0.003704316448
-0.004925467088
-0.004408418508
-0.003579310633
-0.004673038825
-0.002220284408
-0.004385391466
-0.001050796627
-0.003517761766
-0.0002684550195
-0.002178504149
-0.0006516069604
-0.0003159454623
0.001458354651
-0.001048670843
0.003429612953
-0.002034403741
0.004608105613
-0.00315470945
0.005172213399
-0.004324874589
0.005273979014
-0.00548153386
0.005017525089
-0.006571570485
0.00446667395
-0.007543725605
0.003656995671
-0.008343395662
0.00261046737
-0.008910708359
0.00135001775
-0.009182391624
-8.668553748e-05
-0.009096618681
-0.001636506783
-0.008604223804
-0.00319750069
-0.007683884874
-0.004624655334
-0.006363811992
-0.005728491347
-0.004745853142
-0.006290997635
-0.003022760616
-0.006108483957
-0.00146952134
-0.005071001007
-0.0003882281334
-0.003259797317
-0.001039835073
-0.000329180521
0.001787535157
-0.001096391197
0.004196823632
-0.002134977923
0.005646692375
-0.003325211425
0.006362446954
-0.004583440644
0.00653220828
-0.00584911437
0.006283198845
-0.007072276943
0.005689836544
-0.008203498146
0.004788216905
-0.009186913863
0.003593883137
-0.009956541725
0.002119645669
-0.01043571943
0.0003924922144
-0.01054191119
-0.00153031498
-0.01019471719
-0.003544694646
-0.009333802331
-0.005485570143
-0.007946384491
-0.007115909138
-0.006105736012
-0.008131646065
-0.004012801523
-0.008201418403
-0.002014525933
-0.007069276557
-0.0005527827632
-0.004721540449
-0.001592617816
-0.0003297850827
0.002117320272
-0.001101671992
0.004968710548
-0.00215136096
0.006696381355
-0.003360977872
0.007572063898
-0.004650708252
0.007821938712
-0.00596578666
0.007598277307
-0.007263183358
0.006987233283
-0.008500352059
0.006025385638
-0.009626787544
0.004720318667
-0.01057837421
0.003071232395
-0.01127436678
0.001088484856
-0.01161792331
-0.00118675839
-0.0115014094
-0.003661208501
-0.01082031671
-0.00616666279
-0.009502809974
-0.008433415824
-0.007560447178
-0.01007400881
-0.00516075469
-0.01060111084
-0.002696048446
-0.009533982755
-0.000774129191
-0.006643459661
-0.002366746987
-0.0003199360144
0.002437256327
-0.001066683972
0.005715458553
-0.002080410678
0.007710108083
-0.003246786426
0.008738439666
-0.004492264184
0.009067416507
-0.005770816712
0.008876829895
-0.007050251509
0.008266668147
-0.008300474778
0.007275608957
-0.009484235945
0.005904079875
-0.01054989922
0.004136895727
-0.01142555862
0.001964144327
-0.01201410746
-0.0005982094711
-0.01219372193
-0.003481593969
-0.01182088443
-0.006539500222
-0.01075528334
-0.009499016864
-0.008913652436
-0.01191563967
-0.006370771912
-0.01314399132
-0.003498908499
-0.01240584612
-0.001063130966
-0.009079237148
-0.003429877932
-0.0003074199551
0.002744676302
-0.001006614189
0.006414652852
-0.001938395673
0.008641889619
-0.002991950447
0.009791994473
-0.004102873704
0.01017833979
-0.005237518463
0.01001147469
-0.006378708649
0.009407858407
-0.00751417756
0.008411077951
-0.008627438864
0.007017341242
-0.009689961868
0.00519941878
-0.010653264
0.002927446516
-0.01143768505
0.0001862116465
-0.01192955522
-0.002989723728
-0.01196505967
-0.006503995695
-0.01134377068
-0.01012030579
-0.009868962639
-0.01339044766
-0.007460084299
-0.01555286961
-0.004363801286
-0.01550212909
-0.001425519518
-0.01201751887
-0.00485539743
-0.0003089477552
0.003053624066
-0.0009556228214
0.007061327969
-0.001768584352
0.009454851211
-0.00263952127
0.01066293146
-0.003518425645
0.01105724421
-0.004389916272
0.01088296534
-0.005256940649
0.01027488283
-0.006129761468
0.009283898853
-0.007017975533
0.007905555402
-0.007923610154
0.00610505348
-0.008832502383
0.003836338805
-0.009704494911
0.00105820423
-0.01045098372
-0.002243234857
-0.01092433738
-0.006030641974
-0.010895191
-0.01014945211
-0.01006498788
-0.01422065073
-0.008157346914
-0.01746051053
-0.005167633657
-0.0184918423
-0.001854341418
-0.01533081107
-0.006709738829
-0.0003552970095
0.0034089211
-0.0009734132536
0.007679444244
-0.001646198713
0.0101276367
-0.002268911371
0.01128564418
-0.00281709499
0.01160542791
-0.003303995251
0.01136986565
-0.003759750277
0.01073063787
-0.004221295995
0.009745444604
-0.004726539984
0.008410799461
-0.005310167637
0.006688681223
-0.005997062275
0.004523233529
-0.006792191581
0.001853333606
-0.007660952184
-0.001374474196
-0.008503352766
-0.005188241341
-0.009113441591
-0.009539363237
-0.009142697708
-0.01419139456
-0.008128511918
-0.01847469628
-0.005711199198
-0.02090915498
-0.002318289248
-0.01872372099
-0.009028028063
-0.0005004088599
0.003909330001
-0.001151393839
0.008330429276
-0.001674996648
0.01065123952
-0.001981893964
0.0115925415
-0.002095996193
0.01171953022
-0.00207611721
0.01134998677
-0.001988901335
0.01064342206
-0.001901605381
0.009658148682
-0.001879395753
0.008388589862
-0.001986441056
0.006795726574
-0.002282926401
0.004819718939
-0.002819193961
0.002389601234
-0.003622559557
-0.0005711085404
-0.004669207562
-0.004141593286
-0.005834944074
-0.008373626685
-0.006807903307
-0.0132184353
-0.007016828301
-0.01826577125
-0.005716478571
-0.02220950468
-0.002739585114
-0.02170061442
-0.01176761317
-0.0008309178996
0.004740247928
-0.001604935334
0.009104446807
-0.001951168624
0.01099747287
-0.0018396606
0.01148103344
-0.001385792376
0.01126566199
-0.0007185532288
0.01068274769
4.774475172e-05
0.009877124177
0.0008159158155
0.008889977707
0.001494867863
0.007709637876
0.001997943307
0.006292651177
0.002238061031
0.004579601259
0.002127931856
0.002499730456
0.001582771891
-2.594852753e-05
0.0005446868042
-0.003103508157
-0.0009846103909
-0.006844329455
-0.002828640902
-0.01137440476
-0.004459301347
-0.01663511079
-0.004810584402
-0.02185822161
-0.002944319285
-0.02356687951
-0.01471193245
-0.001465708667
0.006205956589
-0.002379964566
0.01001870276
-0.002373614794
0.01099112326
-0.001603798997
0.01071121771
-0.0003499640062
0.01001182696
0.001163240672
0.009169542978
0.002771397885
0.008268966976
0.004349068458
0.007312307185
0.005791158822
0.006267547578
0.006997568976
0.005086241084
0.007865079492
0.003712090793
0.00828191104
0.00208289895
0.00812349678
0.0001324657671
0.007264215137
-0.002244226485
0.005584975781
-0.005165090075
0.003073683399
-0.008863112356
7.884737448e-05
-0.01364027474
-0.002445831364
-0.01933354286
-0.002601107967
-0.0234116029
-0.01731304041
-0.002365514478
0.008571471088
-0.002963857014
0.01061704518
-0.001922923204
0.009950189536
8.093340805e-05
0.008707361254
0.002534633951
0.007558126523
0.005139941115
0.006564235858
0.007719394885
0.005689513224
0.0101542389
0.004877463194
0.01234918833
0.00407259818
0.01421163384
0.003223795627
0.01564020394
0.002283520743
0.01651729584
0.001205807085
0.01669684688
-4.708523368e-05
0.0160269198
-0.00157429938
0.01430492456
-0.003443094815
0.01133270022
-0.005890888012
0.007055510024
-0.00936308453
0.002201559412
-0.01447959224
-0.00102734852
-0.02018269496
-0.01834038893
-0.002150335691
0.0107218069
-7.199476086e-05
0.008538704076
0.003741870494
0.00613632414
0.007719698929
0.004729532784
0.01156174224
0.003716083243
0.01514082873
0.002985149422
0.01839863146
0.002431710545
0.02130130321
0.001974791481
0.02381217194
0.001561729482
0.02587948136
0.001156486246
0.02743033862
0.0007326635239
0.02836453094
0.0002716147983
0.02857546353
-0.0002580177969
0.02788754926
-0.0008863850772
0.02609925847
-0.001654804019
0.0229082074
-0.002699836926
0.01790692314
-0.004361800263
0.01076687919
-0.007339548287
0.002912167803
-0.01232798357
-0.01542822113
0.01072180701
0.0192605112
0.02539683539
0.03012636818
0.03384245142
0.03682760085
0.03925931141
0.04123410292
0.04279583242
0.04395231869
0.04468498223
0.04495659704
0.04469857926
0.04381219419
0.04215739017
0.03945755325
0.03509575298
0.0277562047
0.01542822113
)
;

boundaryField
{
    movingWall
    {
        type            calculated;
        value           uniform 0;
    }
    fixedWalls
    {
        type            calculated;
        value           uniform 0;
    }
    frontAndBack
    {
        type            empty;
    }
}


// ************************************************************************* //
