/*--------------------------------*- C++ -*----------------------------------*\
  =========                 |
  \\      /  F ield         | OpenFOAM: The Open Source CFD Toolbox
   \\    /   O peration     | Website:  https://openfoam.org
    \\  /    A nd           | Version:  13
     \\/     M anipulation  |
\*---------------------------------------------------------------------------*/
FoamFile
{
    format      ascii;
    class       surfaceScalarField;
    location    "24";
    object      phi_0;
}
// * * * * * * * * * * * * * * * * * * * * * * * * * * * * * * * * * * * * * //

dimensions      [0 3 -1 0 0 0 0];

internalField   nonuniform List<scalar> 
760
(
-1.322499356e-05
1.321212345e-05
-7.201718232e-05
5.879219629e-05
-0.0001620639824
9.004681807e-05
-0.000265205486
0.0001031414733
-0.0003682170668
0.000103011528
-0.0004614721184
9.325506196e-05
-0.000537712871
7.624085816e-05
-0.0005912024532
5.348971859e-05
-0.0006174698114
2.626742273e-05
-0.0006135527002
-3.917163048e-06
-0.0005784287576
-3.512405919e-05
-0.0005138188535
-6.460999587e-05
-0.0004246439313
-8.917492902e-05
-0.0003192745574
-0.0001053693046
-0.0002092254005
-0.0001100490693
-0.0001081436204
-0.0001010817262
-2.993215504e-05
-7.821145449e-05
1.414302922e-05
-4.407519157e-05
2.190612077e-05
-7.763091353e-06
2.190613411e-05
-6.870119292e-05
8.191331983e-05
-0.0002457590292
0.0002358500338
-0.0004934353707
0.0003377232399
-0.0007722163071
0.0003819225202
-0.0010503251
0.0003811203388
-0.001302902647
0.0003458324927
-0.001510486913
0.0002838249638
-0.001657747713
0.0002007504568
-0.001733075224
0.0001015950374
-0.001729188132
-7.804056858e-06
-0.001643727509
-0.0001205845104
-0.001481328941
-0.000227008503
-0.001254318618
-0.0003161852942
-0.0009832539969
-0.0003764339971
-0.0006961208833
-0.0003971822118
-0.000425726221
-0.0003714763595
-0.0002049971701
-0.000298940449
-5.981856409e-05
-0.0001892537454
-4.955303581e-07
-6.708608277e-05
2.141061094e-05
-0.000122924697
0.0002048380344
-0.000414937355
0.0005278626328
-0.0008085983662
0.0007313842127
-0.001247057219
0.0008203814414
-0.001684517211
0.0008185804764
-0.002084255141
0.000745570542
-0.002416768152
0.0006163379816
-0.002658366575
0.0004423487833
-0.002790780842
0.0002340091946
-0.002802211644
3.626709277e-06
-0.00268771981
-0.0002350762906
-0.002452806626
-0.000461921587
-0.002114049162
-0.0006549426765
-0.001700285802
-0.0007901973248
-0.001251766079
-0.000845701936
-0.0008167152057
-0.0008065272314
-0.0004446126441
-0.0006710429907
-0.0001762312335
-0.0004576351216
-3.221333947e-05
-0.0002111039368
-1.080271714e-05
-0.000172062866
0.0003769009556
-0.0005725086865
0.0009283084764
-0.001105867877
0.001264743328
-0.001697885169
0.001412398657
-0.002290396995
0.0014110923
-0.002837012817
0.001292186454
-0.003299944807
0.001079270092
-0.003648001526
0.0007904055762
-0.003856044136
0.000442051802
-0.003905531611
5.311413902e-05
-0.003787485307
-0.0003531226285
-0.003503795224
-0.0007456116581
-0.003071083182
-0.00108765467
-0.002522485716
-0.001338794737
-0.001907894817
-0.001460292798
-0.001290843308
-0.001423578721
-0.0007407227481
-0.001221163533
-0.0003202596469
-0.0008780981987
-7.110065225e-05
-0.0004602628966
-8.190335366e-05
-0.0002170021523
0.000593903114
-0.0007187678582
0.001430074297
-0.001385531878
0.001931507397
-0.002126937387
0.002153804136
-0.002874128958
0.002158283807
-0.003572899556
0.001990957017
-0.004178645034
0.001685015601
-0.00465322601
0.001264986628
-0.004963831821
0.0007526576845
-0.005083657951
0.0001729403046
-0.004994685933
-0.0004420946456
-0.00469088667
-0.001049410926
-0.004183261098
-0.001595280229
-0.003504184685
-0.002017871117
-0.002710299181
-0.002254178263
-0.001881478441
-0.002252399427
-0.001113177484
-0.001989464462
-0.0005007974905
-0.001490478168
-0.0001191369428
-0.0008419234129
-0.0002010402784
-0.0002573442595
0.0008512473157
-0.0008512666809
0.002023996758
-0.001642158477
0.002722399279
-0.002526349767
0.003037995494
-0.003426627672
0.003058561728
-0.004283058111
0.002847387432
-0.005045839503
0.002447796968
-0.005670613148
0.001889760283
-0.006116332911
0.001198377492
-0.00634556632
0.0004021737689
-0.006327446629
-0.0004602142952
-0.006042113088
-0.001334744444
-0.005488006843
-0.002149386457
-0.004689721115
-0.002816156821
-0.003705528384
-0.003238370962
-0.002631046228
-0.003326881548
-0.001594146067
-0.003026364588
-0.0007363506421
-0.002348273563
-0.0001821116645
-0.001396162359
-0.0003831519242
-0.0002911614446
0.001142408749
-0.0009640512494
0.002696886519
-0.001864023358
0.003622371401
-0.002877934122
0.004051906314
-0.0039231849
0.004103812569
-0.004936662104
0.003860864675
-0.005865501549
0.003376636422
-0.006660581224
0.002684839958
-0.007273000792
0.001810797076
-0.007653532167
0.0007827051809
-0.007755378076
-0.0003583683392
-0.007539389384
-0.001550733096
-0.006983670959
-0.00270510485
-0.006095512455
-0.003704315296
-0.004925466081
-0.004408417303
-0.003579309912
-0.004673037681
-0.002220283961
-0.004385390501
-0.001050796415
-0.003517761074
-0.0002684549661
-0.002178503775
-0.0006516068723
-0.0003159453305
0.001458354133
-0.001048670551
0.003429611732
-0.002034403217
0.004608104047
-0.003154708646
0.005172211748
-0.004324873493
0.005273977454
-0.0054815325
0.005017523735
-0.006571568922
0.004466672889
-0.00754372391
0.003656994974
-0.008343393897
0.002610467084
-0.00891070657
0.001350017886
-0.009182389858
-8.668500678e-05
-0.009096616994
-0.001636505912
-0.00860422226
-0.003197499542
-0.007683883532
-0.004624653986
-0.0063638109
-0.005728489899
-0.004745852333
-0.00629099621
-0.003022760097
-0.006108482696
-0.001469521082
-0.005071000049
-0.0003882280621
-0.003259796757
-0.001039834916
-0.0003291804428
0.001787534617
-0.001096390947
0.004196822293
-0.002134977476
0.005646690593
-0.003325210764
0.006362445038
-0.004583439762
0.006532206465
-0.005849113275
0.006283197285
-0.007072275665
0.005689835332
-0.008203496737
0.004788216097
-0.009186912387
0.003593882773
-0.00995654023
0.002119645765
-0.01043571794
0.0003924927516
-0.01054190974
-0.001530314055
-0.01019471583
-0.003544693403
-0.009333801102
-0.005485568662
-0.007946383446
-0.007115907513
-0.006105735201
-0.008131644415
-0.004012800976
-0.00820141688
-0.002014525648
-0.007069275335
-0.000552782679
-0.004721539682
-0.001592617575
-0.000329785072
0.002117319687
-0.001101671859
0.004968709143
-0.002151360676
0.006696379462
-0.003360977431
0.007572061827
-0.004650707667
0.00782193672
-0.005965785948
0.00759827559
-0.007263182533
0.006987231963
-0.008500351141
0.006025384768
-0.009626786574
0.004720318265
-0.01057837323
0.003071232464
-0.01127436581
0.001088485382
-0.01161792236
-0.001186757455
-0.01150140847
-0.003661207226
-0.01082031581
-0.006166661256
-0.009502809153
-0.008433414117
-0.007560446487
-0.01007400703
-0.005160754186
-0.01060110914
-0.002696048162
-0.009533981316
-0.0007741291014
-0.006643458699
-0.002366746655
-0.0003199360353
0.002437255718
-0.001066683976
0.005715457119
-0.002080410624
0.007710106161
-0.003246786294
0.008738437552
-0.004492263981
0.009067414453
-0.005770816467
0.008876828107
-0.007050251249
0.008266666778
-0.008300474503
0.007275608082
-0.009484235658
0.005904079498
-0.01054989894
0.004136895819
-0.01142555835
0.00196414485
-0.01201410719
-0.000598208563
-0.01219372162
-0.003481592738
-0.01182088408
-0.006539498737
-0.01075528294
-0.009499015196
-0.008913652015
-0.0119156379
-0.006370771544
-0.01314398956
-0.003498908257
-0.01240584456
-0.00106313088
-0.009079236033
-0.003429877514
-0.0003074199916
0.002744675733
-0.00100661431
0.006414651463
-0.001938395861
0.008641887743
-0.002991950676
0.009791992417
-0.004102873953
0.0101783378
-0.005237518738
0.01001147295
-0.006378708987
0.009407857062
-0.007514177976
0.008411077109
-0.008627439336
0.007017340924
-0.00968996237
0.00519941894
-0.01065326451
0.002927447077
-0.01143768554
0.0001862125401
-0.01192955564
-0.002989722584
-0.01196505997
-0.006503994349
-0.01134377082
-0.01012030429
-0.009868962618
-0.01339044605
-0.00746008417
-0.01555286795
-0.004363801143
-0.01550212754
-0.001425519449
-0.01201751768
-0.004855396943
-0.0003089478271
0.003053623599
-0.0009556230463
0.007061326732
-0.001768584752
0.009454849476
-0.002639521844
0.01066292953
-0.003518426364
0.01105724237
-0.004389917089
0.01088296376
-0.005256941566
0.01027488161
-0.00612976251
0.009283898096
-0.007017976688
0.007905555141
-0.007923611377
0.006105053689
-0.00883250362
0.003836339401
-0.009704496102
0.001058205106
-0.01045098481
-0.002243233797
-0.01092433831
-0.006030640795
-0.0108951917
-0.01014945085
-0.01006498831
-0.01422064939
-0.008157347092
-0.01746050912
-0.005167633666
-0.01849184092
-0.001854341385
-0.01533080992
-0.00670973831
-0.0003552971324
0.00340892076
-0.0009734135904
0.007679443262
-0.001646199292
0.01012763524
-0.002268912212
0.01128564248
-0.002817096103
0.01160542627
-0.003303996567
0.01136986428
-0.003759751723
0.01073063687
-0.004221297554
0.009745444017
-0.004726541644
0.008410799292
-0.005310169364
0.006688681456
-0.005997064013
0.0045232341
-0.006792193264
0.001853334419
-0.007660953748
-0.001374473246
-0.008503354142
-0.005188240338
-0.009113442712
-0.009539362223
-0.009142698515
-0.01419139354
-0.008128512392
-0.01847469521
-0.00571119938
-0.02090915389
-0.002318289267
-0.01872372
-0.009028027562
-0.0005004090041
0.003909329778
-0.00115139428
0.008330428588
-0.001674997402
0.01065123844
-0.001981894999
0.01159254016
-0.002095997551
0.01171952883
-0.002076118862
0.01134998558
-0.001988903173
0.01064342122
-0.001901607324
0.009658148252
-0.001879397739
0.008388589801
-0.001986443045
0.00679572684
-0.002282928354
0.004819719469
-0.00281919583
0.002389601947
-0.003622561296
-0.000571107732
-0.004669209118
-0.004141592469
-0.005834945391
-0.008373625907
-0.006807904327
-0.01321843456
-0.00701682898
-0.01826577052
-0.005716478901
-0.02220950394
-0.002739585191
-0.02170061369
-0.01176761274
-0.0008309180111
0.004740247817
-0.001604935782
0.00910444636
-0.001951169498
0.01099747218
-0.001839661783
0.01148103256
-0.00138579385
0.011265661
-0.0007185549967
0.01068274676
4.774274701e-05
0.009877123472
0.0008159137104
0.008889977306
0.00149486575
0.007709637811
0.001997941257
0.0062926514
0.00223805909
0.004579601702
0.002127930057
0.002499731036
0.001582770237
-2.594786652e-05
0.0005446853346
-0.003103507529
-0.0009846116522
-0.006844328888
-0.002828641921
-0.01137440427
-0.004459302094
-0.01663511033
-0.004810584806
-0.02185822121
-0.002944319406
-0.02356687906
-0.01471193214
-0.001465708752
0.006205956627
-0.002379964862
0.01001870251
-0.002373615565
0.0109911228
-0.001603800164
0.01071121717
-0.0003499654574
0.01001182639
0.001163238986
0.009169542423
0.002771396018
0.008268966511
0.004349066481
0.007312306883
0.005791156836
0.00626754749
0.006997567068
0.005086241209
0.007865077724
0.003712091092
0.008281909444
0.002082899363
0.008123495394
0.0001324662244
0.007264213937
-0.002244226041
0.00558497477
-0.005165089697
0.00307368259
-0.008863112069
7.884684342e-05
-0.01364027456
-0.002445831722
-0.01933354264
-0.002601108095
-0.02341160268
-0.01731304024
-0.00236551461
0.008571471265
-0.002963857104
0.01061704519
-0.0019229236
0.009950189266
8.093260482e-05
0.008707360861
0.002534632824
0.007558126127
0.005139939749
0.006564235517
0.007719393355
0.005689512959
0.01015423728
0.004877463021
0.0123491867
0.004072598119
0.01421163227
0.003223795682
0.0156402025
0.0022835209
0.01651729459
0.00120580731
0.0166968458
-4.708495012e-05
0.01602691892
-0.001574299133
0.01430492385
-0.00344309461
0.01133269967
-0.005890887874
0.007055509582
-0.009363084465
0.002201559138
-0.01447959219
-0.00102734864
-0.0201826949
-0.01834038887
-0.002150335863
0.01072180705
-7.199475169e-05
0.008538704317
0.003741870457
0.006136324252
0.007719698667
0.004729532733
0.0115617417
0.003716083108
0.01514082795
0.002985149277
0.01839863049
0.002431710432
0.02130130213
0.001974791414
0.02381217083
0.001561729464
0.02587948028
0.001156486272
0.02743033764
0.0007326635858
0.0283645301
0.0002716148824
0.02857546288
-0.0002580176992
0.02788754876
-0.000886384993
0.02609925812
-0.001654803956
0.02290820715
-0.002699836891
0.01790692295
-0.00436180026
0.01076687906
-0.007339548292
0.002912167749
-0.01232798358
-0.01542822112
0.01072180697
0.01926051119
0.02539683542
0.03012636817
0.0338424513
0.03682760061
0.03925931106
0.04123410249
0.04279583197
0.04395231827
0.04468498187
0.04495659677
0.04469857908
0.04381219409
0.04215739014
0.03945755325
0.03509575299
0.0277562047
0.01542822112
)
;

boundaryField
{
    movingWall
    {
        type            calculated;
        value           uniform 0;
    }
    fixedWalls
    {
        type            calculated;
        value           uniform 0;
    }
    frontAndBack
    {
        type            empty;
    }
}


// ************************************************************************* //
