/*--------------------------------*- C++ -*----------------------------------*\
  =========                 |
  \\      /  F ield         | OpenFOAM: The Open Source CFD Toolbox
   \\    /   O peration     | Website:  https://openfoam.org
    \\  /    A nd           | Version:  13
     \\/     M anipulation  |
\*---------------------------------------------------------------------------*/
FoamFile
{
    format      ascii;
    class       surfaceScalarField;
    location    "24";
    object      phi_0;
}
// * * * * * * * * * * * * * * * * * * * * * * * * * * * * * * * * * * * * * //

dimensions      [0 3 -1 0 0 0 0];

internalField   nonuniform List<scalar> 
760
(
3.428196656e-06
-3.427830043e-06
-3.885218208e-05
4.228020305e-05
-0.000127897764
8.904591422e-05
-0.0002485034758
0.0001206054078
-0.0003854208241
0.0001369173742
-0.0005258203668
0.0001403989689
-0.0006584005682
0.0001325803626
-0.0007721141335
0.0001137141337
-0.0008556105359
8.34969589e-05
-0.0008978216273
4.221204085e-05
-0.0008896786281
-8.142615998e-06
-0.0008266464403
-6.303222015e-05
-0.0007113524731
-0.0001152939141
-0.0005554218313
-0.0001559304419
-0.0003794431408
-0.0001759789188
-0.0002102842427
-0.000169159264
-7.568629645e-05
-0.000134597945
3.104690223e-06
-7.879113396e-05
2.046150217e-05
-1.735758428e-05
2.046093514e-05
-4.559573845e-05
4.216815346e-05
-0.0002005192131
0.0001972038807
-0.0004523294131
0.0003408559824
-0.0007697856257
0.0004380601233
-0.001120172465
0.0004873033313
-0.001473449942
0.0004936757477
-0.001801677142
0.0004608079906
-0.002077640443
0.000389679744
-0.002274665186
0.000280523466
-0.002368389808
0.0001359373224
-0.002340451306
-3.608106754e-05
-0.002183282274
-0.0002202005509
-0.001904925698
-0.0003936505197
-0.001532034243
-0.000528822185
-0.001109411728
-0.0005986010612
-0.0006945636091
-0.000584006827
-0.0003468462928
-0.0004823156655
-0.000112461764
-0.00031317723
-7.913776635e-06
-0.0001219061106
1.254659475e-05
-0.0001062620111
0.0001484300026
-0.0003853468742
0.0004762885411
-0.0007934315381
0.0007489400274
-0.001283981781
0.0009286094445
-0.001812395967
0.001015716021
-0.002337387431
0.001018668239
-0.002819898933
0.0009433212076
-0.003221925434
0.0007917079342
-0.003506887998
0.0005654874058
-0.003642185199
0.0002712348482
-0.003603731399
-7.453569104e-05
-0.003381676681
-0.0004422545642
-0.002986110215
-0.0007892155582
-0.002451038967
-0.001063892865
-0.001834611511
-0.00121502849
-0.001213435043
-0.001205182988
-0.000669652807
-0.001026098132
-0.0002717865568
-0.0007110441609
-5.390142953e-05
-0.0003397916209
-4.13552648e-05
-0.0001637145615
0.0003121449906
-0.0005623268543
0.0008749012463
-0.001117930255
0.001304542164
-0.001766325035
0.00157700314
-0.002452486715
0.001701877042
-0.003127418078
0.001693600499
-0.003745160917
0.001561064882
-0.004261017655
0.001307564237
-0.004631850141
0.0009363197533
-0.004818702842
0.0004580881341
-0.004791469128
-0.0001017686259
-0.004535005005
-0.0006987176859
-0.004055861224
-0.001268358765
-0.00338820536
-0.001731547872
-0.002596708049
-0.002006523955
-0.001773161507
-0.002028727587
-0.00102365283
-0.001775606452
-0.000445832944
-0.00128886452
-0.0001020342054
-0.0006835918086
-0.0001433900445
-0.0002150315662
0.0005271760892
-0.0007222729118
0.001382142181
-0.001412422265
0.001994691098
-0.002204043241
0.002368623279
-0.003033001253
0.00253083434
-0.003845141405
0.002505739988
-0.004590794854
0.002306718781
-0.005221627442
0.001938396888
-0.005690067601
0.001404760062
-0.005951226454
0.0007192468612
-0.005967071596
-8.592283371e-05
-0.005712638901
-0.0009531492709
-0.005184174937
-0.001796822409
-0.004408201974
-0.002507519916
-0.003449311321
-0.002965413018
-0.002412077353
-0.003065960709
-0.001430925218
-0.002756758098
-0.0006437999319
-0.002075991016
-0.0001544423729
-0.001172950906
-0.0002978329484
-0.0002589781298
0.0007861544106
-0.0008602189286
0.001983383118
-0.001667858205
0.002802329337
-0.002585626483
0.003286390684
-0.003542274325
0.00348748265
-0.004480890105
0.003444355975
-0.005350848135
0.003176677015
-0.006102785601
0.00269033354
-0.006686481448
0.001988456337
-0.007051355133
0.001084120669
-0.007149526991
1.224878725e-05
-0.00694166026
-0.001161016825
-0.006406548861
-0.002331935077
-0.005554018212
-0.00336004993
-0.004439646409
-0.00407978347
-0.003175610451
-0.004329996691
-0.00192771827
-0.004004649459
-0.0008875038133
-0.003116206831
-0.0002186309721
-0.001841823953
-0.0005164635165
-0.0002941671068
0.001080321239
-0.0009712533788
0.002660469426
-0.001874740592
0.003705816656
-0.002896864867
0.004308515467
-0.003961691496
0.004552309638
-0.005011974067
0.004494638693
-0.005998788456
0.00416349156
-0.006874423086
0.003565966936
-0.007588251228
0.002702284329
-0.008085228758
0.001581096957
-0.008307056134
0.0002340737792
-0.008197173276
-0.001270902302
-0.007710567461
-0.002818542539
-0.006830420811
-0.004240195943
-0.005590657492
-0.005319545121
-0.004099551527
-0.005821101507
-0.002551114503
-0.005553084844
-0.001202763892
-0.004464557561
-0.0003039975622
-0.002740589574
-0.0008204605524
-0.0003190148058
0.001399336064
-0.001050118268
0.00339157303
-0.002022548558
0.004678248117
-0.00312053086
0.005406499712
-0.004265868086
0.005697647453
-0.005403313648
0.005632084084
-0.006488310283
0.005248488036
-0.007477840541
0.004555496024
-0.008324112304
0.003548555425
-0.008970673061
0.002227654873
-0.009351130306
0.0006145268887
-0.009391804206
-0.001230231145
-0.009020514344
-0.003189831561
-0.008184625422
-0.005076082857
-0.006880531006
-0.006623638088
-0.005192562833
-0.007509068306
-0.003327919673
-0.007417727851
-0.001614822418
-0.00617765443
-0.0004209611812
-0.003934451501
-0.001241422867
-0.0003323333666
0.001731669948
-0.001092528221
0.004151769248
-0.002101693607
0.005687414905
-0.003239030144
0.006543837609
-0.004426142587
0.006884760187
-0.005611885903
0.006817826468
-0.006758703629
0.006395304701
-0.007831714227
0.005628505454
-0.00879035418
0.004507194646
-0.009582065287
0.003019363263
-0.01013807153
0.001170530317
-0.01037251402
-0.0009957900259
-0.01018767684
-0.003374667012
-0.009489830126
-0.005773928067
-0.008221753836
-0.007891714363
-0.006415961039
-0.009314860952
-0.004261173193
-0.009572517752
-0.002143540889
-0.008295287076
-0.0005806883468
-0.005497305456
-0.001822111986
-0.0003343760796
0.002066046348
-0.001097699912
0.004915094592
-0.002107402055
0.006697118028
-0.00323960687
0.007676042582
-0.004417336524
0.00806248974
-0.005595447626
0.007995936767
-0.006745947102
0.007545803557
-0.007845737902
0.006728296114
-0.008866690713
0.00552814727
-0.00976728114
0.003919951472
-0.01048540293
0.001888651205
-0.01093301946
-0.0005481729591
-0.01099551128
-0.003312174927
-0.01054038557
-0.006229054845
-0.009446115009
-0.008985986208
-0.007662952815
-0.01109802353
-0.005312374309
-0.0119230967
-0.002795667126
-0.01081199389
-0.0007945925456
-0.007498378575
-0.00261670186
-0.0003283168071
0.002394363624
-0.0010718506
0.005658629194
-0.00204499113
0.007670258816
-0.003121331007
0.008752381846
-0.0042268613
0.009168019484
-0.00532457449
0.009093649852
-0.006398669057
0.008619898999
-0.007441380631
0.007771008579
-0.008442225757
0.00652899237
-0.009378431349
0.0048561554
-0.01020547598
0.002715694795
-0.01084709856
9.344988218e-05
-0.01118762452
-0.002971649742
-0.0110686917
-0.006347987995
-0.01030605894
-0.009748617909
-0.008744836233
-0.01265924547
-0.006381240506
-0.01428669051
-0.003552048457
-0.01364118652
-0.001072671695
-0.009977755409
-0.003689372591
-0.0003222429436
0.002716606854
-0.001032474214
0.006368860448
-0.001935757892
0.008573542172
-0.002902373037
0.009718996235
-0.003863929577
0.01012957523
-0.004794967605
0.01002468794
-0.005695040733
0.009519973978
-0.006574915228
0.008650884373
-0.007445919402
0.007399995546
-0.008310413722
0.005720649166
-0.009151399274
0.003556681163
-0.009920015804
0.000862066784
-0.01051918552
-0.00237248125
-0.01078920823
-0.006077964928
-0.01050233774
-0.01003548719
-0.009395794054
-0.01376578955
-0.00729056178
-0.01639192253
-0.004349836046
-0.0165819137
-0.00141930648
-0.01290828804
-0.005108679342
-0.0003320033581
0.003048609958
-0.001013316741
0.007050173326
-0.001822322613
0.009382547543
-0.002625103616
0.01052177676
-0.003365010125
0.0108694815
-0.004034547234
0.01069422519
-0.004653124258
0.01013855203
-0.005252838898
0.009250600117
-0.005869047042
0.008016203311
-0.006532402505
0.006384004589
-0.007259632725
0.004283912704
-0.008040485937
0.001642920841
-0.008817934185
-0.001595031901
-0.00946151709
-0.005434380321
-0.009738029853
-0.009758975016
-0.009304557353
-0.01419926349
-0.007787528125
-0.01790895197
-0.005064294053
-0.01930514517
-0.001824756475
-0.01614782594
-0.006933433134
-0.0003857556026
0.003434365399
-0.001069908158
0.007734325219
-0.001771203758
0.01008384239
-0.002354623645
0.01110519621
-0.002789081495
0.01130393979
-0.003096689356
0.01100183386
-0.003323340537
0.01036520319
-0.003524946324
0.009452205653
-0.003760770022
0.008252027951
-0.004088699945
0.006711937261
-0.004559279157
0.004754493508
-0.005205528962
0.002289169396
-0.006024531162
-0.0007760295954
-0.006945476167
-0.004513435596
-0.007780024586
-0.008924429121
-0.008166007272
-0.01381328201
-0.007566719696
-0.01850823972
-0.005497804059
-0.02137406003
-0.002250670572
-0.01939495948
-0.009184106594
-0.0005306574719
0.003965023092
-0.00128312878
0.00848679615
-0.001865443981
0.01066615666
-0.002159331635
0.01139908244
-0.002188139497
0.01133274756
-0.002022635868
0.0108363316
-0.001744025673
0.01008659329
-0.001434028043
0.009142207573
-0.001173473655
0.007991473851
-0.00104265698
0.006581121951
-0.001120249502
0.004832086044
-0.001478618779
0.002647538415
-0.002171754803
-8.289012642e-05
-0.003207638258
-0.00347754983
-0.004491282901
-0.00764078501
-0.005725532426
-0.01257903558
-0.006302045852
-0.01793173019
-0.005376721837
-0.02229938582
-0.002606955995
-0.02216472192
-0.01179106081
-0.0008348162841
0.004799839348
-0.001745527103
0.009397506815
-0.002158764195
0.0110793931
-0.00203490406
0.01127522045
-0.001509104431
0.01080694865
-0.0007280789104
0.01005530754
0.0001827623717
0.009175752961
0.001116279331
0.008208690176
0.001975096084
0.007132657332
0.002664423772
0.005891794982
0.003087141812
0.004409368041
0.003142145737
0.002592535482
0.002727724314
0.0003315310694
0.001757229557
-0.002507058014
0.0002047464665
-0.006088301792
-0.001780646487
-0.01059363915
-0.003662115747
-0.01605025781
-0.004346368647
-0.02161513183
-0.002716013483
-0.02379508198
-0.01450707289
-0.001363884262
0.00616372317
-0.002468833248
0.01050245516
-0.002482298211
0.01109285911
-0.001643554383
0.01043647632
-0.000302087743
0.009465481945
0.001295594021
0.008457625924
0.002983261449
0.007488084532
0.004639055235
0.006552895917
0.006162125905
0.005609588279
0.007456375808
0.004597546575
0.008419855406
0.003445889104
0.008937780014
0.00207461301
0.008878275057
0.0003910342344
0.008095107447
-0.001723892723
0.006447965871
-0.004441162908
0.003889195117
-0.008034871003
0.0007188870171
-0.01287995082
-0.001963973222
-0.01893227502
-0.00228472913
-0.02347432338
-0.01679180339
-0.002137563193
0.008301286099
-0.002942112431
0.01130700394
-0.001737719338
0.009888468013
0.0004460171714
0.008252741859
0.002986261232
0.006925237868
0.005597157658
0.005846727715
0.008129339847
0.004955900162
0.0104888071
0.004193428597
0.01260288438
0.003495511388
0.01439809436
0.002802335122
0.01578780082
0.002056183308
0.0166636304
0.001198789102
0.01688638122
0.0001682832071
0.01628127022
-0.001118780294
0.0146297605
-0.002789651669
0.01169471809
-0.005099831822
0.00738600447
-0.008571233364
0.002394768721
-0.01394103787
-0.0009077089354
-0.02017184264
-0.01769951469
-0.002480224353
0.01078151115
-5.765820224e-06
0.008832544046
0.004173845679
0.005708855156
0.008303036657
0.004123550588
0.01206996665
0.003158308454
0.0154477313
0.002468962464
0.01844106318
0.001962566678
0.02105918807
0.001575303008
0.02330122639
0.001253474049
0.02514674467
0.0009568170421
0.02654961406
0.0006533124478
0.02743085406
0.000317548757
0.02767349026
-7.435237382e-05
0.02711493702
-0.0005602253879
0.02551361818
-0.001188331416
0.02250669131
-0.002092905859
0.01759008352
-0.003654622261
0.01038098659
-0.006731946097
0.002462358234
-0.01225321418
-0.01523715723
0.01078151182
0.01961405657
0.02532291146
0.02944646199
0.03260476967
0.03507373073
0.0370362972
0.03861160158
0.03986507629
0.04082189403
0.0414752088
0.04179275611
0.04171840184
0.04115817611
0.03996984313
0.03787693756
0.0342223161
0.02749036998
0.01523715697
)
;

boundaryField
{
    movingWall
    {
        type            calculated;
        value           uniform 0;
    }
    fixedWalls
    {
        type            calculated;
        value           uniform 0;
    }
    frontAndBack
    {
        type            empty;
    }
}


// ************************************************************************* //
