/*--------------------------------*- C++ -*----------------------------------*\
  =========                 |
  \\      /  F ield         | OpenFOAM: The Open Source CFD Toolbox
   \\    /   O peration     | Website:  https://openfoam.org
    \\  /    A nd           | Version:  13
     \\/     M anipulation  |
\*---------------------------------------------------------------------------*/
FoamFile
{
    format      ascii;
    class       volVectorField;
    location    "24";
    object      U_0;
}
// * * * * * * * * * * * * * * * * * * * * * * * * * * * * * * * * * * * * * //

dimensions      [0 1 -1 0 0 0 0];

internalField   nonuniform List<vector> 
400
(
(1.088010648e-05 -3.789743312e-05 0)
(-0.0006661983061 0.0004130108997 -1.54361803e-23)
(-0.002185282352 0.0009203323765 0)
(-0.004047581339 0.001312685929 0)
(-0.005971460118 0.001534952858 6.832870862e-25)
(-0.007762238753 0.001569732936 4.152738442e-24)
(-0.009283895892 0.001423461753 -7.333380866e-24)
(-0.01043522691 0.001119646605 7.571917379e-24)
(-0.01113608062 0.0006960389309 -2.098668502e-25)
(-0.01132640696 0.000203069416 -3.999636399e-24)
(-0.01097114474 -0.0003002087156 5.80899926e-24)
(-0.01007181746 -0.0007474673681 -5.933923392e-23)
(-0.008679514756 -0.001075502545 -6.557249942e-23)
(-0.006902643653 -0.001232988472 -7.789177981e-23)
(-0.004910675829 -0.001192601322 4.576709768e-24)
(-0.002927287483 -0.0009619119474 -4.141242354e-24)
(-0.001205427874 -0.0005912339604 -2.00100019e-22)
(-1.920862569e-05 -0.00016992757 0)
(0.0005180533347 0.0001720314536 1.519470778e-25)
(0.0002227255179 0.0003059432958 -2.681413942e-24)
(-0.0002634012242 0.0008288200742 1.388845983e-25)
(-0.002703164575 0.003383550053 1.553284541e-23)
(-0.006906765278 0.005604032808 1.543345331e-25)
(-0.01195137406 0.007007629154 -8.470407864e-25)
(-0.01713366308 0.007553165366 1.158429948e-24)
(-0.02197358884 0.007293631655 1.302818604e-23)
(-0.02610869896 0.006321433048 1.428812582e-24)
(-0.02926340099 0.004753886918 -7.32260349e-24)
(-0.03122442538 0.002737028277 1.017301592e-23)
(-0.03183977526 0.0004524688496 4.515762245e-24)
(-0.03102557328 -0.001883905323 -6.324740168e-24)
(-0.02879142533 -0.004022656291 2.960485271e-24)
(-0.02527001767 -0.005707907086 3.897852657e-23)
(-0.02073099266 -0.006706958841 -1.956345713e-24)
(-0.0155890675 -0.006853757893 3.757746993e-24)
(-0.01038491192 -0.006097209441 -9.752572577e-23)
(-0.005730286165 -0.004546091004 9.649505547e-23)
(-0.00223348899 -0.002507472706 -3.9809745e-25)
(-0.0001818876314 -0.0005025197447 4.0813753e-25)
(8.341865678e-05 0.0006098087266 0)
(-0.0004187971798 0.002934822575 -2.91599133e-25)
(-0.004647497913 0.008803251472 1.709523138e-23)
(-0.01137098104 0.01323927002 -8.210376255e-24)
(-0.01932560938 0.0157906819 -2.063103557e-25)
(-0.02747173828 0.01652861697 2.026784084e-25)
(-0.03511479362 0.01564316904 8.089136201e-27)
(-0.04170997452 0.01335899457 -1.260050764e-24)
(-0.0468319388 0.009919151145 -4.576997334e-25)
(-0.05014600179 0.005602229548 -1.065223557e-23)
(-0.05140851068 0.0007446439178 0)
(-0.05047438926 -0.004241175842 0)
(-0.04733395343 -0.008886280976 2.673421318e-23)
(-0.04215671959 -0.01268068034 2.815357383e-23)
(-0.03531242898 -0.01513492266 -1.647796321e-24)
(-0.02738863369 -0.01586087564 4.8515202e-23)
(-0.019169283 -0.01467256226 9.430530068e-23)
(-0.01156056253 -0.01169315079 3.987786598e-23)
(-0.005465334243 -0.007450627651 4.181756475e-25)
(-0.001451132304 -0.002936177805 1.053030426e-25)
(-9.072757164e-05 0.000225706168 0)
(-0.0005024165037 0.006044818551 -4.255702533e-23)
(-0.006402156242 0.01636929257 -1.69973397e-23)
(-0.01553360799 0.02355723703 8.137260228e-24)
(-0.02627675179 0.02743922968 0)
(-0.03728416448 0.02831863653 0)
(-0.04768624621 0.02658561189 0)
(-0.05679185139 0.02262956647 -4.600666348e-26)
(-0.06404862985 0.01683507751 -2.113128114e-24)
(-0.0690054144 0.009621870782 0)
(-0.07130294412 0.001491453313 1.641351328e-24)
(-0.07070350235 -0.006935453706 2.806520651e-25)
(-0.06712586368 -0.01492861454 -2.814378839e-25)
(-0.06069519385 -0.02166536718 0)
(-0.05180441798 -0.02631402719 4.138755941e-23)
(-0.04114764096 -0.02815880308 -4.687070377e-23)
(-0.02971819793 -0.02677216427 -2.768155375e-23)
(-0.01873631868 -0.02221425743 -3.973128667e-23)
(-0.009487659473 -0.01521873964 7.795225218e-25)
(-0.002976798512 -0.007298182008 9.776311509e-23)
(-0.0002318695655 -0.0008663332468 0)
(-0.0005315592946 0.01009410796 4.276405983e-23)
(-0.007982855967 0.02594984947 4.77344545e-25)
(-0.01939511592 0.03642557646 -4.664421718e-25)
(-0.0328209086 0.0418515707 0)
(-0.04664284466 0.04289128416 7.77007238e-25)
(-0.05984725055 0.04019760978 -7.662337287e-25)
(-0.07162706753 0.03434500596 3.667832916e-23)
(-0.08132111306 0.02585514443 1.843480213e-23)
(-0.08835933018 0.01527250606 6.225447368e-24)
(-0.09224801619 0.003246701127 -1.643263519e-24)
(-0.09259739136 -0.009406318633 0)
(-0.08916966702 -0.02167247357 4.378932272e-25)
(-0.08195463278 -0.03236459435 1.011946612e-23)
(-0.07126457956 -0.04020939961 -4.355144362e-23)
(-0.05781688662 -0.0440174534 1.936574541e-24)
(-0.04278350729 -0.04294570494 4.229643251e-23)
(-0.02775307448 -0.03683156673 -3.861700925e-25)
(-0.01454991317 -0.02652612477 0)
(-0.004859241486 -0.01408420862 5.43597694e-23)
(-0.0003641242478 -0.002847036275 -2.563530257e-22)
(-0.0005271719042 0.0149979231 9.833635767e-23)
(-0.00937710689 0.03738687076 -4.90182696e-25)
(-0.02287987162 0.05169768914 0)
(-0.03882719205 0.05893682592 0)
(-0.05538206577 0.0602508797 -8.727542293e-23)
(-0.07142314125 0.05661476103 -8.494400005e-23)
(-0.08606000175 0.048798413 -4.062643069e-23)
(-0.09854366136 0.0374377481 -1.502014528e-23)
(-0.1081869543 0.02315913086 -5.357019347e-24)
(-0.1143368092 0.006710338809 -8.167465891e-24)
(-0.1163971572 -0.01093097903 6.592916608e-24)
(-0.1138867476 -0.02848641697 8.811336332e-24)
(-0.1065424226 -0.04436662493 -1.891971116e-23)
(-0.09446268861 -0.05674906559 4.542640778e-24)
(-0.07826428995 -0.06377870824 0)
(-0.0592258181 -0.06393111344 -1.57942723e-23)
(-0.03933779268 -0.05653515242 -2.218731954e-26)
(-0.02114082016 -0.04235616106 0)
(-0.007318335933 -0.02398145292 -1.519168396e-22)
(-0.0005215790033 -0.005925477316 6.053080951e-22)
(-0.0004990464482 0.02064392026 -9.766661479e-23)
(-0.01052869432 0.05044998376 2.831051947e-22)
(-0.02582760439 0.06911924705 1.526385208e-22)
(-0.04401809663 0.07848617057 3.617793863e-24)
(-0.06310280833 0.08028856904 -7.318575972e-23)
(-0.08189829793 0.07587502836 9.038540162e-23)
(-0.09947091503 0.06621272652 -3.588563516e-24)
(-0.1150152918 0.05201427561 -1.72822747e-24)
(-0.1277440161 0.03392256911 2.522727765e-24)
(-0.1368391801 0.01270300514 7.375586092e-24)
(-0.1414630725 -0.01058554825 -6.493107444e-24)
(-0.14081721 -0.03445657118 -9.771225233e-24)
(-0.1342676186 -0.05692295693 -3.261534645e-23)
(-0.1215389147 -0.07552772636 -3.65084553e-23)
(-0.1029622283 -0.0875369929 5.624267785e-25)
(-0.07975987465 -0.0903868587 0)
(-0.05426425568 -0.08244081172 0)
(-0.0298701977 -0.0639743676 -2.903653618e-24)
(-0.01066233873 -0.03798641894 2.968049395e-24)
(-0.0007350446566 -0.01050059804 1.027782656e-22)
(-0.0004479014346 0.02687024274 0)
(-0.01134851295 0.06480219284 2.00181471e-22)
(-0.02801421918 0.08828904835 8.961489365e-23)
(-0.04799556863 0.1001157606 0)
(-0.0692017917 0.1027002035 1.569364128e-22)
(-0.09043838909 0.09780929114 0)
(-0.1107768895 0.08660597621 -1.428014635e-22)
(-0.1294023808 0.06983620806 6.513475379e-24)
(-0.1454696883 0.04808095453 0)
(-0.1580274684 0.02201815171 0)
(-0.1660056383 -0.007331968011 -1.373785143e-24)
(-0.1682596902 -0.03838424765 -9.310477371e-25)
(-0.1636994766 -0.06883424508 1.491153143e-22)
(-0.1515145887 -0.09557630339 -4.704252726e-23)
(-0.1315081004 -0.1148230037 -2.558494362e-24)
(-0.1045553858 -0.1225636997 1.53232193e-24)
(-0.07309054191 -0.1155460517 -1.55649322e-24)
(-0.04134851774 -0.09282691634 0)
(-0.01525165392 -0.05740529976 3.202460084e-24)
(-0.001044248773 -0.01714654191 -1.012559077e-21)
(-0.0003744775644 0.03346041501 0)
(-0.01174953019 0.0799829877 -1.127842456e-22)
(-0.02920570386 0.1086309148 -6.189972418e-22)
(-0.05031506211 0.1232145407 -3.754651153e-22)
(-0.07295975857 0.1269011827 0)
(-0.09598524211 0.1219181379 4.118671996e-22)
(-0.1185221941 0.1096290645 1.260594853e-22)
(-0.1398088775 0.09077862377 -5.580490122e-24)
(-0.1590159755 0.06581223425 5.552869695e-24)
(-0.1751396959 0.0352092811 0)
(-0.1869495414 -0.0001942029067 2.911474026e-23)
(-0.1930109189 -0.03889312232 4.694332255e-24)
(-0.1917749189 -0.07843288904 -1.076351634e-22)
(-0.1817818141 -0.1151793665 7.99988113e-23)
(-0.1620520537 -0.1442521148 -2.418775525e-22)
(-0.1327020717 -0.1598470163 0)
(-0.09577582786 -0.1563041959 0)
(-0.05601447388 -0.1302925774 0)
(-0.02147783471 -0.08380801437 0)
(-0.001500313347 -0.02665418455 5.570309272e-22)
(-0.0002874296921 0.04015791692 0)
(-0.01169333411 0.09542936437 -3.492410381e-22)
(-0.02924359626 0.1293984433 8.931442475e-22)
(-0.05060800563 0.1469202547 3.616545069e-22)
(-0.07369864457 0.1519655815 0)
(-0.09744867005 0.1472677141 -3.861819525e-22)
(-0.1211035995 0.1344128852 -3.173868468e-23)
(-0.1440286966 0.1141351408 3.332568647e-22)
(-0.1655102899 0.08669815251 1.769186664e-22)
(-0.1846206922 0.05229160319 -4.059497312e-23)
(-0.2001283867 0.011419694 1.656717646e-23)
(-0.210458076 -0.03470976043 -8.263468767e-24)
(-0.2137167526 -0.08375949295 3.37123636e-22)
(-0.2078175694 -0.1318681818 0)
(-0.1908200944 -0.1732672923 2.419944081e-22)
(-0.1616302148 -0.2002507291 5.771814517e-24)
(-0.121163563 -0.2040040426 -5.857889361e-24)
(-0.07384809982 -0.1772053027 1.54748794e-22)
(-0.0297170632 -0.1188599172 -5.432574844e-24)
(-0.00217946451 -0.04005258344 0)
(-0.0002117871626 0.04671347881 0)
(-0.01125007074 0.110542855 0)
(-0.02815618252 0.1497262519 -5.022057788e-22)
(-0.04874447636 0.1701417141 -1.880754784e-23)
(-0.07100024244 0.1766160646 2.038097543e-23)
(-0.09399360648 0.1724442816 -2.014033359e-23)
(-0.1171423147 0.1594806058 -2.316548357e-23)
(-0.1400167299 0.1384762342 -3.029333309e-22)
(-0.1621316566 0.1095141429 6.698305052e-23)
(-0.1827947167 0.07245224108 4.512438215e-23)
(-0.2009824178 0.02735178848 -4.576958536e-23)
(-0.2152258888 -0.02508259817 0)
(-0.2235549909 -0.08297755467 -7.836945719e-23)
(-0.2234617958 -0.1427184913 0)
(-0.212066279 -0.1981738926 -3.738927443e-22)
(-0.1867416138 -0.2400686516 5.243803057e-22)
(-0.1464420282 -0.2560687518 0)
(-0.09394425261 -0.2331134661 -1.493063048e-22)
(-0.04021925898 -0.1639561988 1.936588427e-22)
(-0.003201014595 -0.05860879087 -3.410571694e-22)
(-0.000201631358 0.05297305954 0)
(-0.01067302046 0.1248104661 9.1819561e-22)
(-0.02628519286 0.1687333522 -2.440422073e-23)
(-0.04501202991 0.1916355659 9.19240898e-22)
(-0.06494708031 0.199282549 -2.511804998e-23)
(-0.08536752502 0.195602192 2.838509075e-23)
(-0.1059319645 0.1827823759 -2.812598192e-23)
(-0.126494024 0.1616543045 -1.660721371e-23)
(-0.1469015283 0.1321745278 -5.259618106e-22)
(-0.1668478862 0.09389699553 -8.905590531e-24)
(-0.1857325241 0.04640827226 9.659109162e-24)
(-0.2024804149 -0.01023368171 3.312762156e-22)
(-0.2154175243 -0.07499268464 -5.820091835e-22)
(-0.2220226025 -0.1450245876 0)
(-0.2188042079 -0.2146686045 8.886114368e-22)
(-0.2016260188 -0.2739935604 -4.939805101e-22)
(-0.1668635484 -0.3075729075 -1.571876478e-23)
(-0.1140213213 -0.2953735279 0)
(-0.05288427031 -0.2195745539 -1.8892383e-22)
(-0.004749106598 -0.08377055442 3.359646067e-22)
(-0.0003643059331 0.05902070648 1.55086491e-23)
(-0.01049646642 0.1379819619 -8.763325958e-22)
(-0.02441539047 0.1856719334 -1.156961627e-21)
(-0.04026945092 0.2101291217 -8.628115064e-22)
(-0.05631011948 0.2182258906 0)
(-0.07215193003 0.2146113218 3.513456302e-23)
(-0.0877960723 0.2018734086 -7.294142183e-23)
(-0.1034605949 0.1809970116 5.867306044e-23)
(-0.1194031207 0.1518984493 3.021047194e-22)
(-0.1357982272 0.1139158802 -1.128089606e-23)
(-0.1526135169 0.06621684149 0)
(-0.1694574272 0.008181164003 -3.603581467e-22)
(-0.1852810976 -0.06015490396 7.515048784e-22)
(-0.1980493479 -0.1372690006 8.831056554e-22)
(-0.2043582637 -0.2189199007 -5.296017855e-22)
(-0.1991002899 -0.2959644704 5.162161699e-22)
(-0.1760618767 -0.3514000372 1.077922853e-23)
(-0.1300894046 -0.35840799 -1.095232916e-23)
(-0.06688785058 -0.2843219116 -8.223978879e-23)
(-0.007083258762 -0.1169939679 0)
(-0.0009096948176 0.06539843369 -1.911334962e-23)
(-0.01167691753 0.1502764043 -1.326871198e-21)
(-0.0238909822 0.200058563 1.094145792e-21)
(-0.03601671777 0.2244134 6.73443908e-22)
(-0.04657743396 0.2316507946 6.014183783e-22)
(-0.05577561796 0.227232533 6.643444777e-22)
(-0.06411842404 0.214172459 -4.458304072e-23)
(-0.07228218165 0.1936465344 -3.461074806e-22)
(-0.08097675633 0.1656020543 2.152004569e-22)
(-0.09087925265 0.129271874 0)
(-0.1025622072 0.0835335042 0)
(-0.1163696042 0.02720387933 2.655244019e-22)
(-0.1321660347 -0.04061563175 8.194694193e-23)
(-0.1489317223 -0.1200080639 -2.821312626e-22)
(-0.1641340107 -0.2089250882 -5.410924788e-23)
(-0.1727921165 -0.3006940059 1.30200722e-22)
(-0.1670340403 -0.3793272856 -3.400059314e-22)
(-0.136530683 -0.4136393762 -1.597785455e-23)
(-0.08018280933 -0.3538274488 8.212739722e-23)
(-0.01050760506 -0.159410554 -6.032847207e-22)
(-0.002260615668 0.07348747013 0)
(-0.01580473828 0.1626481829 2.145731768e-21)
(-0.02665306229 0.2117845371 0)
(-0.03422753007 0.2333878664 -1.351718385e-21)
(-0.03759947932 0.2377699465 6.184399466e-23)
(-0.03800348894 0.2312496045 -6.192614731e-22)
(-0.03669016094 0.2171857208 -4.755957858e-22)
(-0.03489848225 0.1968911968 8.300662857e-22)
(-0.03379687703 0.1703338611 -1.885558592e-22)
(-0.03450738841 0.1367234128 0)
(-0.03812427336 0.09479935573 0)
(-0.04565820199 0.04304634644 2.410800417e-23)
(-0.05791588926 -0.02013391399 -6.006881801e-22)
(-0.07515321305 -0.09620257077 -4.309336335e-22)
(-0.0964581307 -0.185551812 4.637677289e-22)
(-0.1183515152 -0.2853530465 -6.488268275e-22)
(-0.1332754216 -0.3838347515 9.118632246e-23)
(-0.1265373888 -0.4504317459 2.941480961e-23)
(-0.08899233197 -0.4198495737 5.66071392e-22)
(-0.01526922401 -0.2111697193 6.021478654e-22)
(-0.005181000088 0.08597977276 0)
(-0.02525671718 0.1766265334 1.465608367e-22)
(-0.03483687612 0.2205919143 -4.91687789e-23)
(-0.03640462303 0.2354807665 7.642469392e-22)
(-0.03019087322 0.2343354464 -7.004933984e-22)
(-0.0191731379 0.224155854 4.7461846e-23)
(-0.00562336248 0.2083492839 -1.018576515e-22)
(0.008560829268 0.1881223343 -3.38966094e-22)
(0.02178980111 0.1633909152 2.062706444e-22)
(0.03261886211 0.1333254675 0)
(0.03957597144 0.09664314803 0)
(0.04116204327 0.0517435346 -2.902532772e-22)
(0.03577733653 -0.003252181476 0)
(0.02197502485 -0.07058045286 -5.512017917e-22)
(-0.001270872193 -0.1525706966 -1.491886348e-23)
(-0.03310977111 -0.2505924511 2.559577559e-23)
(-0.06909640996 -0.3599317081 2.202835248e-22)
(-0.09228092277 -0.4575400694 4.789654795e-24)
(-0.0871819784 -0.4698102718 -5.789703751e-22)
(-0.02103138413 -0.2698954873 0)
(-0.01111636858 0.1085974355 0)
(-0.0424900073 0.1947139464 -8.848063466e-22)
(-0.04795773805 0.2258170209 -5.410840412e-22)
(-0.03919944404 0.2282101337 4.543634102e-22)
(-0.01878395361 0.2182291492 -1.710102174e-24)
(0.007657340536 0.2028187252 -4.56081852e-23)
(0.03667203428 0.1847595012 5.696350202e-22)
(0.06582154632 0.1647103845 -2.766736761e-23)
(0.09326270661 0.142312566 -2.0696636e-22)
(0.1173807718 0.1166283323 3.142059399e-23)
(0.1365382578 0.08641314685 -3.425769248e-23)
(0.1489596676 0.05017896169 -3.690464201e-23)
(0.1525211104 0.006161668405 3.205531327e-22)
(0.1449310702 -0.04795887188 6.119420355e-22)
(0.1235111205 -0.1153032399 -5.10101833e-22)
(0.08633132948 -0.2004179551 -1.615982184e-22)
(0.03198739225 -0.3067794146 1.531359971e-22)
(-0.02362373376 -0.4239824626 7.293762547e-23)
(-0.06492514859 -0.4871598551 1.913303079e-21)
(-0.02509985705 -0.3291533607 2.95500445e-21)
(-0.02004676843 0.1460730728 -4.390089609e-23)
(-0.06416451685 0.2112953768 4.417261621e-23)
(-0.05070376507 0.2177289396 1.000156577e-21)
(-0.01934370918 0.2014661373 -8.267469089e-24)
(0.02414055362 0.180905404 0)
(0.0715358735 0.1606911936 4.363505459e-23)
(0.1190640437 0.1416478393 -2.273730181e-22)
(0.1644698392 0.1233171116 -9.027454323e-23)
(0.2062180003 0.1048114173 3.680531194e-23)
(0.242957338 0.08507182055 -1.701573528e-23)
(0.2732142504 0.06296250104 3.429822381e-23)
(0.2952478092 0.03726436629 -6.592432762e-23)
(0.3066920564 0.006536667844 -9.303608388e-23)
(0.3049695737 -0.03087615975 1.516999076e-22)
(0.2863901614 -0.07786163142 0)
(0.2470540493 -0.1399291539 1.505528406e-22)
(0.18108999 -0.2266295736 2.560011525e-22)
(0.09604283394 -0.3443890017 0)
(-0.00669846918 -0.4552204959 -3.675652108e-21)
(-0.01922422165 -0.3777532719 -2.892633405e-21)
(-0.02591941132 0.2276832294 -9.514131493e-22)
(-0.0399830834 0.223821894 -1.38894783e-22)
(0.03656118922 0.1810583238 -2.33550287e-22)
(0.1090493906 0.1451052449 -1.19369839e-22)
(0.1817172384 0.1172435929 -4.295681809e-23)
(0.2490061656 0.09627806358 9.782673638e-23)
(0.3100298684 0.0800242394 -1.408512616e-22)
(0.364616486 0.06656757461 1.297103029e-22)
(0.4126204679 0.05449157553 -8.61964795e-23)
(0.4536202477 0.0427091047 1.132176538e-25)
(0.4867833862 0.03032344974 1.527677818e-23)
(0.5107411755 0.01652969311 7.99689989e-23)
(0.5236564782 0.0005372316581 -1.811064524e-22)
(0.5231773113 -0.01863303494 -1.617101043e-22)
(0.5052305125 -0.04286422671 -4.262724606e-23)
(0.4658702209 -0.07633195867 0)
(0.3952687175 -0.1286088278 -1.846502963e-22)
(0.2916064026 -0.2208467782 8.148786983e-22)
(0.1197450851 -0.352501661 1.631605761e-21)
(0.02670536499 -0.3775497343 2.172657863e-21)
(0.2142895533 0.1347448258 9.864908261e-22)
(0.2776314506 0.09870517078 0)
(0.4316595998 0.05810421181 -2.59425839e-22)
(0.530475089 0.03846262817 -1.741612582e-22)
(0.6016962949 0.02623410621 0)
(0.6571190787 0.0183191272 -6.008777143e-23)
(0.7015200362 0.01313591636 6.377619551e-23)
(0.7376025459 0.009542076038 -1.800040681e-23)
(0.7669349398 0.006804470273 2.885795483e-23)
(0.7902087714 0.004464807394 2.314904199e-23)
(0.8074537924 0.002221428374 0)
(0.8182607491 -0.0001499387248 -2.872914521e-23)
(0.8216489849 -0.002723705297 0)
(0.8162388475 -0.00571256088 2.738013625e-23)
(0.7991330715 -0.009611319434 1.421605061e-23)
(0.7679986102 -0.01500253411 -5.799473708e-23)
(0.7106556353 -0.02502522775 -2.535675433e-22)
(0.6235184363 -0.04204288724 -6.918120155e-22)
(0.4230090977 -0.09182971516 0)
(0.2705674586 -0.1524021997 -2.11948568e-21)
)
;

boundaryField
{
    movingWall
    {
        type            calculated;
        value           uniform (1 0 0);
    }
    fixedWalls
    {
        type            calculated;
        value           uniform (0 0 0);
    }
    frontAndBack
    {
        type            empty;
    }
}


// ************************************************************************* //
