/*--------------------------------*- C++ -*----------------------------------*\
  =========                 |
  \\      /  F ield         | OpenFOAM: The Open Source CFD Toolbox
   \\    /   O peration     | Website:  https://openfoam.org
    \\  /    A nd           | Version:  13
     \\/     M anipulation  |
\*---------------------------------------------------------------------------*/
FoamFile
{
    format      ascii;
    class       vectorField;
    location    "24";
    object      U_all;
}
// * * * * * * * * * * * * * * * * * * * * * * * * * * * * * * * * * * * * * //


400
(
(1.088050625e-05 -3.789728783e-05 0)
(-0.0006661979549 0.0004130109271 -1.543634982e-23)
(-0.002185282952 0.0009203328231 0)
(-0.004047582865 0.001312686912 0)
(-0.00597146183 0.001534953737 6.83276885e-25)
(-0.007762240234 0.001569732986 4.153028625e-24)
(-0.009283897659 0.001423460975 -7.334043069e-24)
(-0.01043522977 0.001119645786 7.571438213e-24)
(-0.01113608472 0.0006960389154 -2.098623451e-25)
(-0.0113264114 0.0002030703334 -3.999554462e-24)
(-0.0109711483 -0.0003002074858 5.808982656e-24)
(-0.01007181944 -0.0007474666432 -5.933992411e-23)
(-0.008679515292 -0.001075502715 -6.557294004e-23)
(-0.006902643486 -0.001232989273 -7.789151043e-23)
(-0.004910675651 -0.001192602142 4.576670998e-24)
(-0.002927287486 -0.0009619123243 -4.141201181e-24)
(-0.00120542783 -0.000591233844 -2.000983674e-22)
(-1.92083768e-05 -0.0001699272017 0)
(0.0005180536391 0.0001720318275 1.519465782e-25)
(0.000222725602 0.000305943502 -2.681343843e-24)
(-0.0002634011704 0.0008288205827 1.388839908e-25)
(-0.002703165027 0.003383550841 1.553300816e-23)
(-0.006906767039 0.005604034402 1.543430022e-25)
(-0.01195137832 0.007007632073 -8.470675659e-25)
(-0.01713366996 0.007553169079 1.158445103e-24)
(-0.02197359719 0.007293634738 1.302766845e-23)
(-0.0261087075 0.006321434403 1.429415529e-24)
(-0.02926340926 0.004753886663 -7.322080772e-24)
(-0.03122443389 0.002737027483 1.017301896e-23)
(-0.03183978444 0.0004524684668 4.515662929e-24)
(-0.03102558278 -0.001883905307 -6.324717638e-24)
(-0.02879143399 -0.004022656511 2.960955234e-24)
(-0.02527002424 -0.005707908204 3.897904426e-23)
(-0.02073099657 -0.006706960872 -1.956357251e-24)
(-0.01558906917 -0.006853760161 3.75775802e-24)
(-0.01038491226 -0.006097211095 -9.752550069e-23)
(-0.005730285965 -0.004546091594 9.649416004e-23)
(-0.002233488671 -0.002507472357 -3.980870591e-25)
(-0.0001818874454 -0.000502518919 4.081268618e-25)
(8.341857954e-05 0.0006098093499 0)
(-0.000418797568 0.002934823951 -2.916010919e-25)
(-0.004647499841 0.008803254759 1.709551159e-23)
(-0.01137098476 0.0132392741 -8.209585426e-24)
(-0.01932561578 0.01579068672 -2.063356092e-25)
(-0.02747174824 0.01652862282 2.027031565e-25)
(-0.03511480707 0.01564317546 8.079622355e-27)
(-0.04170999032 0.01335900015 -1.260609167e-24)
(-0.04683195532 0.009919154349 -4.577283426e-25)
(-0.05014601782 0.00560222974 -1.065222726e-23)
(-0.05140852587 0.0007446416696 0)
(-0.05047440359 -0.004241179408 0)
(-0.04733396664 -0.008886284948 2.673391892e-23)
(-0.04215673104 -0.01268068437 2.815354199e-23)
(-0.03531243785 -0.01513492676 -1.647795794e-24)
(-0.02738863953 -0.01586087965 4.851512696e-23)
(-0.01916928609 -0.01467256567 9.430508703e-23)
(-0.0115605637 -0.01169315297 3.987759676e-23)
(-0.005465334426 -0.007450628296 4.181581053e-25)
(-0.001451132245 -0.002936177228 1.053132954e-25)
(-9.072768266e-05 0.0002257069866 0)
(-0.0005024169443 0.006044820894 -4.255621223e-23)
(-0.00640215934 0.0163692996 -1.699760884e-23)
(-0.01553361447 0.02355724633 8.136467011e-24)
(-0.02627676155 0.02743923922 0)
(-0.03728417777 0.0283186455 0)
(-0.04768626327 0.02658562015 0)
(-0.05679187191 0.02262957372 -4.598657158e-26)
(-0.06404865272 0.01683508283 -2.113407478e-24)
(-0.06900543797 0.009621873001 0)
(-0.07130296685 0.001491451777 1.641365944e-24)
(-0.07070352328 -0.006935458652 2.806521888e-25)
(-0.06712588238 -0.01492862189 -2.814380085e-25)
(-0.06069521004 -0.02166537565 0)
(-0.05180443126 -0.02631403572 4.138720068e-23)
(-0.04114765093 -0.02815881088 -4.687062923e-23)
(-0.02971820448 -0.02677217069 -2.768136586e-23)
(-0.01873632224 -0.02221426187 -3.973100882e-23)
(-0.009487660896 -0.01521874178 7.795253332e-25)
(-0.002976798793 -0.007298182131 9.776366318e-23)
(-0.0002318696349 -0.0008663325182 0)
(-0.0005315593609 0.01009411114 4.276324341e-23)
(-0.007982859038 0.02594985952 4.773626876e-25)
(-0.01939512404 0.03642559112 -4.664598435e-25)
(-0.03282092153 0.04185158684 0)
(-0.04664286184 0.04289129924 7.769963671e-25)
(-0.05984727149 0.0401976223 -7.662230409e-25)
(-0.07162709184 0.03434501538 3.667839514e-23)
(-0.08132114013 0.02585515053 1.843525904e-23)
(-0.08835935889 0.01527250845 6.225569514e-24)
(-0.09224804502 0.003246699348 -1.643278158e-24)
(-0.09259741878 -0.009406324727 0)
(-0.08916969188 -0.02167248343 4.378928924e-25)
(-0.0819546544 -0.03236460677 1.011941065e-23)
(-0.07126459754 -0.040209413 -4.355106877e-23)
(-0.05781690067 -0.0440174662 1.936555877e-24)
(-0.04278351729 -0.04294571582 4.229597743e-23)
(-0.02775308064 -0.03683157471 -3.861629641e-25)
(-0.01454991616 -0.02652612937 0)
(-0.004859242349 -0.0140842101 5.435971901e-23)
(-0.0003641243276 -0.002847035937 -2.563536169e-22)
(-0.0005271717577 0.01499792843 9.833571e-23)
(-0.009377109779 0.03738688413 -4.90182203e-25)
(-0.02287987985 0.05169770822 0)
(-0.03882720623 0.05893684766 0)
(-0.05538208539 0.06025090103 -8.727568566e-23)
(-0.07142316534 0.05661477934 -8.494400045e-23)
(-0.08606002931 0.04879842661 -4.062650452e-23)
(-0.09854369155 0.0374377563 -1.502034131e-23)
(-0.1081869863 0.02315913352 -5.357128617e-24)
(-0.1143368418 0.006710336042 -8.167512621e-24)
(-0.1163971891 -0.01093098701 6.59295869e-24)
(-0.1138867774 -0.02848642963 8.811386337e-24)
(-0.1065424492 -0.0443666412 -1.891973391e-23)
(-0.09446271119 -0.05674908383 4.542815394e-24)
(-0.07826430802 -0.0637787265 0)
(-0.05922583142 -0.06393112976 -1.579399102e-23)
(-0.03933780135 -0.05653516515 -2.219596456e-26)
(-0.02114082474 -0.04235616921 0)
(-0.007318337459 -0.0239814565 -1.519173437e-22)
(-0.0005215791334 -0.005925477628 6.05309281e-22)
(-0.0004990465245 0.0206439285 -9.766596901e-23)
(-0.01052869758 0.05045000208 2.83104733e-22)
(-0.0258276123 0.06911927129 1.526384989e-22)
(-0.0440181104 0.0784861974 3.617809252e-24)
(-0.06310282797 0.08028859548 -7.318592692e-23)
(-0.08189832272 0.07587505171 9.038539895e-23)
(-0.09947094381 0.06621274457 -3.5885673e-24)
(-0.1150153234 0.05201428693 -1.728228198e-24)
(-0.1277440495 0.03392257314 2.522730214e-24)
(-0.1368392142 0.01270300203 7.375631162e-24)
(-0.1414631064 -0.01058555795 -6.493148042e-24)
(-0.1408172425 -0.03445658666 -9.771280764e-24)
(-0.1342676484 -0.05692297703 -3.261539582e-23)
(-0.1215389406 -0.07552774942 -3.650875368e-23)
(-0.1029622496 -0.08753701678 5.624332434e-25)
(-0.07975989084 -0.09038688098 0)
(-0.0542642666 -0.08244083007 0)
(-0.02987020375 -0.06397438029 -2.903662085e-24)
(-0.01066234092 -0.03798642541 2.968058048e-24)
(-0.0007350448536 -0.01050059931 1.027782859e-22)
(-0.0004479017051 0.02687025289 0)
(-0.01134851633 0.06480221615 2.001821812e-22)
(-0.02801422663 0.08828907851 8.961487031e-23)
(-0.0479955811 0.100115793 0)
(-0.06920180944 0.1027002348 1.569368277e-22)
(-0.09043841181 0.09780931866 0)
(-0.1107769163 0.08660599787 -1.428016639e-22)
(-0.1294024107 0.06983622226 6.513483363e-24)
(-0.14546972 0.04808096035 0)
(-0.158027501 0.02201814903 0)
(-0.1660056709 -0.007331978641 -1.373787935e-24)
(-0.1682597219 -0.03838426528 -9.310503528e-25)
(-0.1636995064 -0.06883426841 1.491156388e-22)
(-0.1515146154 -0.09557633073 -4.704256614e-23)
(-0.1315081231 -0.1148230328 -2.558502251e-24)
(-0.1045554037 -0.1225637279 1.53233089e-24)
(-0.07309055442 -0.1155460761 -1.556502322e-24)
(-0.04134852496 -0.09282693432 0)
(-0.01525165671 -0.05740530981 3.202465002e-24)
(-0.001044249041 -0.01714654446 -1.012560361e-21)
(-0.0003744776419 0.03346042602 0)
(-0.0117495327 0.07998301438 -1.127840693e-22)
(-0.02920570995 0.1086309499 -6.189974374e-22)
(-0.05031507227 0.1232145784 -3.754652228e-22)
(-0.07295977291 0.1269012187 0)
(-0.09598526044 0.1219181691 4.118674538e-22)
(-0.1185222159 0.109629089 1.260596664e-22)
(-0.1398089021 0.09077864016 -5.580495478e-24)
(-0.1590160019 0.06581224159 5.552875024e-24)
(-0.1751397231 0.03520927909 0)
(-0.1869495687 -0.00019421383 2.911476114e-23)
(-0.1930109458 -0.03889314119 4.694338835e-24)
(-0.1917749447 -0.07843291449 -1.076353572e-22)
(-0.1817818381 -0.1151793969 7.999896927e-23)
(-0.1620520749 -0.144252148 -2.418779221e-22)
(-0.1327020892 -0.1598470496 0)
(-0.09577584077 -0.156304226 0)
(-0.05601448173 -0.1302926009 0)
(-0.02147783793 -0.08380802853 0)
(-0.001500313662 -0.02665418869 5.57031592e-22)
(-0.0002874294361 0.04015792869 0)
(-0.01169333511 0.09542939287 -3.492414538e-22)
(-0.02924359976 0.1293984813 8.93144898e-22)
(-0.05060801207 0.1469202959 3.616546045e-22)
(-0.07369865392 0.1519656211 0)
(-0.09744868201 0.1472677483 -3.861821867e-22)
(-0.1211036137 0.1344129117 -3.173870647e-23)
(-0.1440287127 0.1141351585 3.33257106e-22)
(-0.1655103071 0.08669816073 1.769188055e-22)
(-0.18462071 0.05229160174 -4.059499974e-23)
(-0.2001284045 0.01141968324 1.656718108e-23)
(-0.2104580936 -0.03470977956 -8.263475601e-24)
(-0.2137167699 -0.08375951912 3.371238705e-22)
(-0.2078175863 -0.1318682135 0)
(-0.1908201104 -0.1732673276 2.419947779e-22)
(-0.1616302291 -0.2002507656 5.771825051e-24)
(-0.1211635745 -0.204004077 -5.857900049e-24)
(-0.07384810743 -0.1772053311 1.547491383e-22)
(-0.02971706659 -0.1188599355 -5.432585304e-24)
(-0.002179464846 -0.04005258941 0)
(-0.000211786773 0.04671349117 0)
(-0.01125007028 0.1105428843 0)
(-0.02815618267 0.149726291 -5.022061738e-22)
(-0.04874447776 0.1701417568 -1.880756098e-23)
(-0.07100024527 0.1766161057 2.038098454e-23)
(-0.09399361047 0.1724443172 -2.014034259e-23)
(-0.1171423194 0.1594806332 -2.316549451e-23)
(-0.1400167349 0.1384762521 -3.029335559e-22)
(-0.1621316617 0.109514151 6.698305175e-23)
(-0.1827947219 0.0724522396 4.512441213e-23)
(-0.2009824228 0.02735177801 -4.576961092e-23)
(-0.2152258937 -0.02508261673 0)
(-0.2235549961 -0.08297758003 -7.836957013e-23)
(-0.2234618018 -0.1427185221 0)
(-0.2120662861 -0.1981739274 -3.738929948e-22)
(-0.1867416217 -0.2400686886 5.243807715e-22)
(-0.1464420359 -0.2560687882 0)
(-0.09394425867 -0.2331134978 -1.493066386e-22)
(-0.04021926216 -0.1639562207 1.93659197e-22)
(-0.003201014951 -0.05860879869 -3.410575246e-22)
(-0.0002016310012 0.05297307161 0)
(-0.01067301877 0.1248104948 9.181958576e-22)
(-0.02628518964 0.1687333907 -2.44042269e-23)
(-0.04501202571 0.1916356079 9.192412122e-22)
(-0.0649470756 0.1992825895 -2.511806407e-23)
(-0.08536751996 0.1956022272 2.838510275e-23)
(-0.1059319588 0.1827824028 -2.812599382e-23)
(-0.1264940172 0.1616543216 -1.660721989e-23)
(-0.1469015203 0.1321745347 -5.259620384e-22)
(-0.1668478773 0.09389699311 -8.905595011e-24)
(-0.1857325148 0.04640826164 9.659113999e-24)
(-0.2024804055 -0.01023369927 3.312763549e-22)
(-0.2154175157 -0.07499270798 -5.820094244e-22)
(-0.2220225955 -0.1450246156 0)
(-0.2188042036 -0.2146686362 8.886118956e-22)
(-0.2016260176 -0.2739935947 -4.939809475e-22)
(-0.16686355 -0.3075729427 -1.571877849e-23)
(-0.1140213243 -0.2953735604 0)
(-0.05288427265 -0.2195745781 -1.889241784e-22)
(-0.004749106947 -0.08377056386 3.359649558e-22)
(-0.0003643055425 0.05902071707 1.550865518e-23)
(-0.01049646348 0.1379819884 -8.763328345e-22)
(-0.02441538421 0.1856719695 -1.156961964e-21)
(-0.04026944146 0.2101291613 -8.628117998e-22)
(-0.05631010723 0.2182259285 0)
(-0.07215191565 0.2146113544 3.513458213e-23)
(-0.08779605617 0.2018734334 -7.294145593e-23)
(-0.1034605768 0.180997027 5.867308106e-23)
(-0.1194031006 0.1518984547 3.021048191e-22)
(-0.1357982055 0.1139158765 -1.128089912e-23)
(-0.1526134943 0.06621683029 0)
(-0.1694574047 0.008181147129 -3.603582992e-22)
(-0.1852810763 -0.06015492502 7.515051326e-22)
(-0.1980493289 -0.1372690247 8.831059192e-22)
(-0.2043582483 -0.2189199274 -5.296020084e-22)
(-0.1991002792 -0.2959644993 5.162163656e-22)
(-0.1760618709 -0.3514000678 1.07792402e-23)
(-0.1300894031 -0.3584080201 -1.095234102e-23)
(-0.06688785135 -0.284321936 -8.223946743e-23)
(-0.007083259024 -0.1169939784 0)
(-0.0009096942792 0.06539844196 -1.911335692e-23)
(-0.01167691325 0.1502764265 -1.326871618e-21)
(-0.0238909732 0.2000585946 1.094146114e-21)
(-0.03601670397 0.2244134355 6.734441221e-22)
(-0.04657741544 0.2316508285 6.014184397e-22)
(-0.05577559536 0.2272325615 6.643445723e-22)
(-0.06411839852 0.2141724801 -4.458306254e-23)
(-0.07228215397 0.1936465469 -3.461076202e-22)
(-0.08097672678 0.1656020579 2.152005319e-22)
(-0.09087922164 0.1292718693 0)
(-0.1025621754 0.08353349276 0)
(-0.1163695727 0.02720386319 2.655244555e-22)
(-0.1321660046 -0.04061565064 8.194691321e-23)
(-0.1489316948 -0.1200080842 -2.821313912e-22)
(-0.1641339871 -0.2089251093 -5.410926218e-23)
(-0.1727920981 -0.3006940282 1.302007057e-22)
(-0.167034028 -0.3793273095 -3.40006095e-22)
(-0.1365306769 -0.4136394009 -1.597771246e-23)
(-0.08018280802 -0.3538274708 8.21270763e-23)
(-0.01050760514 -0.1594105647 -6.032844776e-22)
(-0.002260615118 0.07348747585 0)
(-0.01580473302 0.1626481996 2.145732287e-21)
(-0.02665305088 0.211784562 0)
(-0.0342275128 0.233387896 -1.35171894e-21)
(-0.03759945649 0.2377699756 6.184415895e-23)
(-0.03800346077 0.2312496289 -6.192615636e-22)
(-0.03669012871 0.2171857381 -4.755958452e-22)
(-0.03489844751 0.196891206 8.300665438e-22)
(-0.03379684099 0.1703338626 -1.885559242e-22)
(-0.034507352 0.1367234074 0)
(-0.03812423724 0.09479934474 0)
(-0.0456581669 0.0430463317 2.410800057e-23)
(-0.05791585593 -0.02013393057 -6.006882998e-22)
(-0.07515318234 -0.0962025875 -4.309337265e-22)
(-0.09645810361 -0.1855518281 4.637677963e-22)
(-0.1183514929 -0.2853530624 -6.488270046e-22)
(-0.1332754051 -0.383834768 9.11863744e-23)
(-0.1265373791 -0.4504317634 2.941466009e-23)
(-0.08899232861 -0.4198495909 5.660713005e-22)
(-0.01526922382 -0.2111697289 6.021476227e-22)
(-0.005180999835 0.08597977596 0)
(-0.02525671217 0.1766265445 1.465608254e-22)
(-0.0348368637 0.2205919315 -4.916879294e-23)
(-0.03640460351 0.235480788 7.642472987e-22)
(-0.03019084792 0.234335469 -7.004936288e-22)
(-0.01917310729 0.2241558739 4.746185143e-23)
(-0.005623327786 0.2083492981 -1.018576933e-22)
(0.008560866723 0.1881223417 -3.389661799e-22)
(0.02178983981 0.1633909158 2.06270681e-22)
(0.0326189002 0.1333254623 0)
(0.03957600797 0.09664313831 0)
(0.04116207753 0.05174352204 -2.902533274e-22)
(0.03577736832 -0.00325219509 0)
(0.02197505378 -0.07058046625 -5.512018512e-22)
(-0.00127084662 -0.1525707087 -1.491888579e-23)
(-0.03310974959 -0.2505924619 2.559578109e-23)
(-0.06909639278 -0.3599317185 2.202836337e-22)
(-0.09228091152 -0.4575400795 4.789649571e-24)
(-0.08718197383 -0.4698102831 -5.789702761e-22)
(-0.02103138366 -0.2698954947 0)
(-0.01111636853 0.1085974359 0)
(-0.04249000388 0.1947139526 -8.8480643e-22)
(-0.04795772792 0.2258170318 -5.410839848e-22)
(-0.03919942586 0.2282101473 4.543633345e-22)
(-0.01878392902 0.218229164 -1.710089267e-24)
(0.00765737003 0.2028187391 -4.560820684e-23)
(0.03667206743 0.184759512 5.69635153e-22)
(0.06582158188 0.1647103908 -2.766737236e-23)
(0.09326274308 0.1423125671 -2.069663961e-22)
(0.1173808075 0.1166283287 3.142059919e-23)
(0.1365382915 0.08641313952 -3.425769776e-23)
(0.1489596985 0.050178952 -3.690464713e-23)
(0.1525211378 0.006161657786 3.205531712e-22)
(0.144931094 -0.04795888204 6.119421007e-22)
(0.1235111411 -0.1153032485 -5.101018838e-22)
(0.08633134646 -0.2004179619 -1.615982388e-22)
(0.0319874071 -0.3067794198 1.531359871e-22)
(-0.02362372315 -0.4239824679 7.293762233e-23)
(-0.06492514427 -0.4871598611 1.913303052e-21)
(-0.02509985646 -0.3291533654 2.955004421e-21)
(-0.020046768 0.1460730705 -4.390090979e-23)
(-0.0641645151 0.2112953784 4.41726304e-23)
(-0.05070376024 0.2177289459 1.000156719e-21)
(-0.01934369789 0.2014661458 -8.267383883e-24)
(0.02414057154 0.1809054131 0)
(0.07153589672 0.1606912022 4.363506258e-23)
(0.1190640706 0.1416478463 -2.273730843e-22)
(0.1644698684 0.1233171162 -9.027456534e-23)
(0.2062180303 0.1048114187 3.680532064e-23)
(0.2429573675 0.08507181883 -1.70157376e-23)
(0.273214278 0.0629624967 3.42982291e-23)
(0.2952478338 0.0372643602 -6.592433648e-23)
(0.3066920778 0.006536661032 -9.303609637e-23)
(0.3049695918 -0.0308761663 1.516999226e-22)
(0.2863901761 -0.07786163685 0)
(0.2470540609 -0.1399291576 1.505528625e-22)
(0.1810899994 -0.2266295753 2.560011546e-22)
(0.09604284101 -0.3443890038 0)
(-0.006698465563 -0.4552204981 -3.675652072e-21)
(-0.01922422106 -0.377753274 -2.892633377e-21)
(-0.02591941048 0.2276832264 -9.514129908e-22)
(-0.03998308246 0.2238218912 -1.388948302e-22)
(0.03656118957 0.1810583246 -2.335503817e-22)
(0.1090493934 0.1451052485 -1.193697356e-22)
(0.1817172459 0.1172435975 -4.295682928e-23)
(0.2490061779 0.096278068 9.782674539e-23)
(0.3100298847 0.08002424297 -1.408512793e-22)
(0.364616505 0.06656757694 1.297103311e-22)
(0.4126204882 0.05449157638 -8.619649872e-23)
(0.453620268 0.04270910404 1.13217789e-25)
(0.4867834052 0.03032344778 1.527678058e-23)
(0.5107411923 0.01652969026 7.996900982e-23)
(0.5236564921 0.0005372286133 -1.811064731e-22)
(0.5231773218 -0.0186330379 -1.617101195e-22)
(0.5052305203 -0.0428642291 -4.262725293e-23)
(0.4658702263 -0.07633196017 0)
(0.3952687214 -0.1286088283 -1.846502928e-22)
(0.2916064056 -0.2208467783 8.148786958e-22)
(0.1197450869 -0.3525016611 1.631605755e-21)
(0.02670536545 -0.3775497346 2.17265786e-21)
(0.2142895535 0.1347448246 9.864906835e-22)
(0.2776314505 0.09870516875 0)
(0.4316595992 0.05810421059 -2.594259249e-22)
(0.5304750886 0.03846262811 -1.741613153e-22)
(0.601696296 0.02623410675 0)
(0.657119082 0.01831912782 -6.008777859e-23)
(0.7015200417 0.01313591681 6.377620528e-23)
(0.7376025531 0.009542076232 -1.800041063e-23)
(0.766934948 0.006804470209 2.885796114e-23)
(0.7902087795 0.004464807105 2.31490468e-23)
(0.8074537996 0.002221427911 0)
(0.818260755 -0.0001499392978 -2.872914958e-23)
(0.8216489891 -0.0027237059 0)
(0.8162388499 -0.005712561336 2.738014069e-23)
(0.7991330726 -0.009611319704 1.421605288e-23)
(0.7679986103 -0.01500253418 -5.799473553e-23)
(0.7106556351 -0.02502522763 -2.535675414e-22)
(0.6235184362 -0.0420428871 -6.918120135e-22)
(0.4230090978 -0.09182971501 0)
(0.2705674587 -0.1524021996 -2.119485677e-21)
)


// ************************************************************************* //
