/*--------------------------------*- C++ -*----------------------------------*\
  =========                 |
  \\      /  F ield         | OpenFOAM: The Open Source CFD Toolbox
   \\    /   O peration     | Website:  https://openfoam.org
    \\  /    A nd           | Version:  13
     \\/     M anipulation  |
\*---------------------------------------------------------------------------*/
FoamFile
{
    format      ascii;
    class       scalarField;
    location    "5.87";
    object      p_all;
}
// * * * * * * * * * * * * * * * * * * * * * * * * * * * * * * * * * * * * * //


400
(
2.880973764e-08
-0.000439445711
-0.0006839007167
-0.0007214334913
-0.0005669541449
-0.0002513286846
0.0001907457301
0.000726539794
0.001323715948
0.001947527281
0.002558730873
0.003112571284
0.003560421926
0.003853816871
0.003951407067
0.00382870659
0.003490562285
0.002990267199
0.002430811478
0.001920457313
0.0004725968664
5.380615017e-06
-0.0002595340921
-0.0003114931429
-0.000195774413
6.169634624e-05
0.0004322597656
0.0008875743359
0.001398248709
0.001931421166
0.002450271642
0.002911829057
0.003270639334
0.003482830653
0.003513551626
0.003346696225
0.002994805706
0.00250713028
0.002003786006
0.001440658546
0.0007327112036
0.0002178302504
-7.657004693e-05
-0.0001301471168
-3.003062978e-05
0.0001954267404
0.0005213324601
0.0009246030709
0.001380803056
0.001860980216
0.002329987198
0.002745902808
0.003062393992
0.003234382031
0.003226203869
0.003021449304
0.002631392986
0.002098029727
0.001509198057
0.0007794892615
0.0006865271984
0.000114584752
-0.0002164847408
-0.000269307372
-0.0001713915947
4.321650684e-05
0.0003509811968
0.0007340483231
0.001174096421
0.001647180523
0.00211994587
0.002548886012
0.002881531612
0.003063494052
0.003047986576
0.002807751426
0.002344758093
0.001693546533
0.0009193000158
-6.529477382e-05
0.0002045378568
-0.0004073019455
-0.0007584136558
-0.0008010038961
-0.0006953173893
-0.0004801852342
-0.0001768468322
0.0002040317794
0.0006529335188
0.001153517959
0.001675955559
0.002175199103
0.002588951072
0.002846221334
0.00287811919
0.002633701011
0.002094885557
0.001285474678
0.0002533767619
-0.001061514651
-0.0008289815257
-0.00145963566
-0.00181748208
-0.001845203584
-0.001731709334
-0.001518915963
-0.001223346123
-0.0008449918619
-0.000379878618
0.0001688521771
0.0007801158306
0.001411445303
0.001989667138
0.002420374596
0.002598298288
0.002429000949
0.001854201312
0.0008748354395
-0.0004832516715
-0.002224458548
-0.002523899128
-0.003153512037
-0.003513382746
-0.00353357837
-0.003430627653
-0.00324789835
-0.002994158829
-0.0026538064
-0.002201950987
-0.001618518216
-0.0009042054281
-8.597107219e-05
0.0007569069613
0.0015036128
0.001995333396
0.002063024547
0.001570444922
0.0004639720354
-0.001276079255
-0.003561125585
-0.004980476898
-0.005594528645
-0.005960827502
-0.005997643719
-0.005949062126
-0.005859203611
-0.005726537627
-0.005514384984
-0.005167093995
-0.004625667243
-0.003846941961
-0.002825045691
-0.001618853446
-0.000369182499
0.0006966315261
0.001291439057
0.001135502419
5.28621309e-05
-0.002081857119
-0.005039864085
-0.00828150059
-0.008869327511
-0.009254517752
-0.009348150994
-0.009423775202
-0.009528081712
-0.009649003626
-0.009724721515
-0.009658314312
-0.009331868152
-0.008626215824
-0.007465918488
-0.005842911051
-0.00388622998
-0.001890090723
-0.0003069509361
0.0003409530834
-0.0003699425915
-0.002801778013
-0.006540776032
-0.0124799928
-0.01303205518
-0.01345038823
-0.01364627971
-0.01392962949
-0.01435599371
-0.01490698952
-0.01549574924
-0.01597648161
-0.01615302254
-0.01579773325
-0.01469522334
-0.01271436563
-0.009898081468
-0.00656497996
-0.003356323605
-0.001155609102
-0.0008338547793
-0.003241101195
-0.007776387893
-0.01759175036
-0.01809429637
-0.01854772771
-0.01887142565
-0.01942874386
-0.02029667763
-0.02146051862
-0.02281449797
-0.0241631091
-0.02521820102
-0.02560892969
-0.02492267626
-0.02282629197
-0.01915179432
-0.01413959844
-0.008574361938
-0.003788776025
-0.001358461655
-0.003041263229
-0.008159060679
-0.02360302471
-0.02402631715
-0.02447984988
-0.02489482313
-0.02572412484
-0.02708616045
-0.02898493751
-0.03130698052
-0.03381368145
-0.03612257316
-0.03770292319
-0.0379122598
-0.0360972757
-0.03178913054
-0.0249700054
-0.01640959548
-0.007858663443
-0.001821726504
-0.00155783711
-0.006588126179
-0.03050817671
-0.0307773154
-0.03111890481
-0.03146708166
-0.03243400831
-0.03420645852
-0.03682306918
-0.04017298279
-0.04398316885
-0.04778405334
-0.05088678315
-0.05240382566
-0.05132864423
-0.04678332146
-0.03831675679
-0.02642307139
-0.01304567291
-0.001642220008
0.002362321488
-0.001144387088
-0.03840445484
-0.03832615436
-0.03830266385
-0.03823101896
-0.0390080266
-0.04091864188
-0.04404483078
-0.04827779746
-0.05330968037
-0.05858896046
-0.06328004873
-0.06626331643
-0.06619954074
-0.06175699092
-0.05194244195
-0.0367077286
-0.01779752145
0.0007159383477
0.01075369714
0.01126533459
-0.04768549821
-0.0467489946
-0.04584799376
-0.04472554937
-0.0447621056
-0.0463537004
-0.0496106199
-0.05440077288
-0.06035909725
-0.06683945967
-0.07286096341
-0.07709208552
-0.07789989899
-0.07352704445
-0.06243635482
-0.04387541386
-0.01900970701
0.008216323771
0.02703873848
0.03531806769
-0.05952484469
-0.0564233028
-0.05365855215
-0.05048247972
-0.0490150124
-0.04970953785
-0.05263941624
-0.05758353308
-0.06406896
-0.07131428557
-0.07816383117
-0.08307522531
-0.08414881585
-0.07924154905
-0.06634807445
-0.04396800332
-0.01252965966
0.02541320906
0.05643327709
0.07782472478
-0.07659797697
-0.06789338067
-0.06142118939
-0.05479519177
-0.0509954117
-0.05028063089
-0.05253351169
-0.05732776117
-0.06399530279
-0.07155684869
-0.07865461807
-0.08350249082
-0.08393095059
-0.07740781492
-0.06148527686
-0.0340309788
0.0052624669
0.05762077596
0.1051934013
0.1472440968
-0.1077450539
-0.08352360921
-0.0698985023
-0.0577054841
-0.05059272151
-0.04801820221
-0.04936025556
-0.0538190346
-0.06041764284
-0.06791681296
-0.07471873728
-0.07878887387
-0.07770420332
-0.06842363349
-0.04810817805
-0.01369407356
0.0366165694
0.1052225768
0.1762733349
0.2546744244
-0.166446755
-0.09826587974
-0.07412536
-0.05437343698
-0.04414180951
-0.04052439265
-0.04173183875
-0.04639815767
-0.05322534299
-0.06076188929
-0.06724319625
-0.07046983491
-0.06768187471
-0.05578958381
-0.03109553949
0.01076109988
0.07370202133
0.1641643614
0.2739294468
0.435585377
-0.3964782919
-0.1366303769
-0.07429651589
-0.04695992126
-0.03341954757
-0.02935810873
-0.03123803347
-0.0367154171
-0.04418035474
-0.05208448508
-0.05863498525
-0.06163467787
-0.05846085304
-0.04560309822
-0.01860044706
0.02903592348
0.1053127228
0.2314042717
0.4177997992
0.7780138417
)


// ************************************************************************* //
