/*--------------------------------*- C++ -*----------------------------------*\
  =========                 |
  \\      /  F ield         | OpenFOAM: The Open Source CFD Toolbox
   \\    /   O peration     | Website:  https://openfoam.org
    \\  /    A nd           | Version:  13
     \\/     M anipulation  |
\*---------------------------------------------------------------------------*/
FoamFile
{
    format      ascii;
    class       vectorField;
    location    "48.78";
    object      U_all;
}
// * * * * * * * * * * * * * * * * * * * * * * * * * * * * * * * * * * * * * //


400
(
(1.100861159e-05 -3.782997882e-05 0)
(-0.0006660924118 0.0004130432821 -1.551451014e-23)
(-0.002185373802 0.0009203944298 0)
(-0.004047832151 0.001312781648 0)
(-0.005971867018 0.001535065336 6.845899741e-25)
(-0.007762781996 0.001569846148 4.151008669e-24)
(-0.009284545389 0.001423561998 -7.374501471e-24)
(-0.0104359435 0.001119723466 7.529603304e-24)
(-0.01113681723 0.0006960849955 -2.095324778e-25)
(-0.01132711327 0.0002030810126 -3.994550554e-24)
(-0.01097177239 -0.0003002311009 5.803524796e-24)
(-0.0100723261 -0.0007475159359 -5.929499498e-23)
(-0.008679877988 -0.001075564007 -6.552620769e-23)
(-0.006902851769 -0.001233046233 -7.784202917e-23)
(-0.004910737886 -0.001192639903 4.573519775e-24)
(-0.002927231932 -0.000961921265 -4.137863033e-24)
(-0.001205298254 -0.0005912124909 -1.998711234e-22)
(-1.906604996e-05 -0.0001698840741 0)
(0.0005181572238 0.0001720842833 1.509324422e-25)
(0.0002227529869 0.0003059783419 -2.549102008e-24)
(-0.0002633613169 0.0008289724601 1.382855138e-25)
(-0.002703303072 0.003383842941 1.561250677e-23)
(-0.006907275727 0.005604502715 1.555593432e-25)
(-0.01195232043 0.007008209613 -8.496084367e-25)
(-0.01713504559 0.007553777533 1.162234786e-24)
(-0.02197535434 0.007294199414 1.306990293e-23)
(-0.0261107594 0.006321892462 1.387460187e-24)
(-0.02926564613 0.004754191709 -7.281354965e-24)
(-0.03122673089 0.00273715237 1.01521962e-23)
(-0.03184201274 0.0004524084425 4.50987883e-24)
(-0.03102761792 -0.001884141595 -6.318788968e-24)
(-0.02879316857 -0.004023027576 2.96176097e-24)
(-0.02527138396 -0.005708354697 3.89549626e-23)
(-0.02073194783 -0.00670741163 -1.954742947e-24)
(-0.01558962536 -0.006854143426 3.754425258e-24)
(-0.01038513359 -0.006097468341 -9.740819864e-23)
(-0.005730271473 -0.004546191126 9.637448227e-23)
(-0.002233364615 -0.002507423503 -3.960823183e-25)
(-0.0001817708468 -0.0005023755734 4.060715866e-25)
(8.343836527e-05 0.0006099235663 0)
(-0.0004188231974 0.002935081215 -2.910293301e-25)
(-0.004647873713 0.008804015994 1.701912299e-23)
(-0.01137195898 0.0132404244 -8.285043749e-24)
(-0.01932729093 0.01579204262 -2.075708759e-25)
(-0.02747411879 0.01653000351 2.039167137e-25)
(-0.03511779075 0.01564442005 6.793310583e-27)
(-0.0417134498 0.01335997739 -1.219966844e-24)
(-0.04683571732 0.009919769754 -4.550993907e-25)
(-0.05014988867 0.00560243049 -1.063036886e-23)
(-0.05141231918 0.0007444182005 0)
(-0.05047793412 -0.004241781081 0)
(-0.04733706554 -0.008887186166 2.670970381e-23)
(-0.04215928222 -0.0126817684 2.812986729e-23)
(-0.03531437678 -0.015136052 -1.646145191e-24)
(-0.02738996419 -0.01586189775 4.845811113e-23)
(-0.0191700595 -0.0146733454 9.419128841e-23)
(-0.01156090621 -0.01169360808 3.97561652e-23)
(-0.00546540808 -0.007450746738 4.141431839e-25)
(-0.001451094583 -0.002936045838 1.074032173e-25)
(-9.072435212e-05 0.000225874097 0)
(-0.0005024636972 0.006045352033 -4.248719094e-23)
(-0.00640274066 0.01637075834 -1.692136423e-23)
(-0.01553502426 0.02355933722 8.211888856e-24)
(-0.02627912001 0.02744162665 0)
(-0.03728746789 0.0283210228 0)
(-0.04769037673 0.02658772775 0)
(-0.0567966334 0.02263120638 -4.464752502e-26)
(-0.06405384338 0.01683609488 -2.137103528e-24)
(-0.06901081722 0.009622183691 0)
(-0.07130827995 0.001491048287 1.635340102e-24)
(-0.07070853614 -0.006936506066 2.80269632e-25)
(-0.06713039598 -0.01493019002 -2.810543805e-25)
(-0.06069905922 -0.02166728208 0)
(-0.05180750934 -0.0263160573 4.133195407e-23)
(-0.04114992064 -0.02816070845 -4.681525662e-23)
(-0.02971970489 -0.02677372248 -2.761896876e-23)
(-0.01873716687 -0.02221530573 -3.9607605e-23)
(-0.009488025135 -0.01521922264 7.795984191e-25)
(-0.002976875878 -0.007298195858 9.790495927e-23)
(-0.0002318776677 -0.0008661702652 0)
(-0.0005316135805 0.01009501678 4.269379247e-23)
(-0.007983593917 0.02595219916 4.785541292e-25)
(-0.0193968764 0.0364288325 -4.676241093e-25)
(-0.03282382564 0.04185521011 0)
(-0.04664689082 0.04289485391 7.783084295e-25)
(-0.05985229805 0.04020074147 -7.675169002e-25)
(-0.07163291645 0.03434741813 3.672336106e-23)
(-0.08132751616 0.02585664251 1.848260664e-23)
(-0.08836601437 0.01527298454 6.238985885e-24)
(-0.09225469805 0.003246147075 -1.637245296e-24)
(-0.09260379947 -0.009407833531 0)
(-0.08917555629 -0.02167478178 4.370483201e-25)
(-0.08195979425 -0.0323674517 1.008963699e-23)
(-0.0712688573 -0.04021250148 -4.349222211e-23)
(-0.05782019209 -0.04402046244 1.932857023e-24)
(-0.04278583341 -0.04294829219 4.21716844e-23)
(-0.02775450497 -0.03683346792 -3.841635185e-25)
(-0.01455062162 -0.02652720895 0)
(-0.004859459877 -0.01408454538 5.436531562e-23)
(-0.0003641471587 -0.0028469548 -2.565091217e-22)
(-0.0005272207104 0.01499927683 9.841637887e-23)
(-0.009377925262 0.03739022492 -4.907868341e-25)
(-0.02288182927 0.05170223448 0)
(-0.03883043749 0.05894183636 0)
(-0.05538657002 0.06025575039 -8.732168218e-23)
(-0.07142876899 0.05661901314 -8.499131228e-23)
(-0.0860665442 0.04880168893 -4.067595584e-23)
(-0.09855086339 0.03743980572 -1.504392247e-23)
(-0.1081945349 0.02315983991 -5.369010519e-24)
(-0.1143444763 0.006709679202 -8.175044118e-24)
(-0.1164046235 -0.01093292212 6.601188684e-24)
(-0.1138937419 -0.0284894516 8.826848332e-24)
(-0.1065486996 -0.04437046398 -1.892320118e-23)
(-0.0944680426 -0.05675333871 4.608468904e-24)
(-0.07826857217 -0.06378298682 0)
(-0.05922895805 -0.0639349534 -1.572819457e-23)
(-0.03933982154 -0.05653816144 -2.430772224e-26)
(-0.02114188829 -0.04235809013 0)
(-0.007318701943 -0.02398229425 -1.520659269e-22)
(-0.0005216161267 -0.005925545605 6.056295907e-22)
(-0.0004990815651 0.02064574618 -9.774588625e-23)
(-0.01052950921 0.05045438275 2.831994817e-22)
(-0.02582957489 0.06912511996 1.526867181e-22)
(-0.04402138487 0.07849258373 3.619301448e-24)
(-0.06310739451 0.08029476934 -7.319367628e-23)
(-0.08190405401 0.0758804336 9.043590085e-23)
(-0.09947764004 0.06621690981 -3.590230949e-24)
(-0.1150227409 0.05201695187 -1.729177695e-24)
(-0.127751921 0.03392358495 2.524172015e-24)
(-0.1368472627 0.01270233124 7.382675488e-24)
(-0.1414710542 -0.01058782443 -6.500931699e-24)
(-0.1408248198 -0.03446024544 -9.788286476e-24)
(-0.1342745983 -0.05692771945 -3.261726832e-23)
(-0.1215450257 -0.07553316481 -3.661619044e-23)
(-0.1029672682 -0.08754260785 5.646222273e-25)
(-0.07976370216 -0.09039209783 0)
(-0.05426682748 -0.0824451375 0)
(-0.02987161062 -0.06397736826 -2.906084534e-24)
(-0.01066285179 -0.03798794735 2.970534204e-24)
(-0.0007350938052 -0.01050089497 1.027873248e-22)
(-0.0004479164349 0.02687251332 0)
(-0.0113492323 0.06480757771 2.001982726e-22)
(-0.0280159967 0.08829617516 8.962048089e-23)
(-0.04799857411 0.1001234981 0)
(-0.06920602179 0.1027076597 1.569891194e-22)
(-0.09044373502 0.09781579099 0)
(-0.1107831721 0.08661103458 -1.428393164e-22)
(-0.1294093808 0.06983950653 6.515583286e-24)
(-0.1454771678 0.04808232333 0)
(-0.158035185 0.02201755559 0)
(-0.1660133485 -0.007334441138 -1.37441647e-24)
(-0.1682671582 -0.03838839976 -9.316844597e-25)
(-0.163706472 -0.06883976188 1.491988502e-22)
(-0.1515208784 -0.09558276141 -4.704623494e-23)
(-0.131513458 -0.1148298697 -2.561001664e-24)
(-0.1045596104 -0.1225703442 1.534756792e-24)
(-0.07309350136 -0.1155517986 -1.558966478e-24)
(-0.04135021646 -0.09283115679 0)
(-0.01525230354 -0.05740767702 3.203824782e-24)
(-0.001044309361 -0.01714714469 -1.01291736e-21)
(-0.000374466776 0.03346304676 0)
(-0.01175006115 0.07998919081 -1.128297324e-22)
(-0.02920707951 0.108639098 -6.191165986e-22)
(-0.05031745043 0.1232234027 -3.755315201e-22)
(-0.07296317523 0.1269097072 0)
(-0.09598960403 0.121925568 4.11946683e-22)
(-0.1185273519 0.1096348682 1.260929258e-22)
(-0.1398146468 0.09078246185 -5.581848259e-24)
(-0.1590221602 0.06581393356 5.554221109e-24)
(-0.175146105 0.03520881147 0)
(-0.1869560024 -0.0001967481033 2.912134941e-23)
(-0.1930172681 -0.03889754565 4.695851091e-24)
(-0.1917809942 -0.07843888868 -1.076813142e-22)
(-0.1817874462 -0.115186542 8.00425688e-23)
(-0.162057046 -0.144259951 -2.419755134e-22)
(-0.1327062025 -0.1598548671 0)
(-0.09577888365 -0.156311292 0)
(-0.05601633199 -0.1302981106 0)
(-0.02147859209 -0.08381135221 0)
(-0.001500384822 -0.02665516299 5.572133294e-22)
(-0.0002873900124 0.04016077812 0)
(-0.01169359656 0.09543611829 -3.493025029e-22)
(-0.02924438341 0.1294073666 8.932817127e-22)
(-0.05060947287 0.1469299206 3.617187247e-22)
(-0.07370082631 0.1519748709 0)
(-0.09745151187 0.1472757996 -3.862564034e-22)
(-0.1211069856 0.1344191981 -3.174436483e-23)
(-0.1440324818 0.1141393344 3.333110198e-22)
(-0.1655143274 0.08670006794 1.769477122e-22)
(-0.1846248557 0.0522912358 -4.060156515e-23)
(-0.200132584 0.01141716171 1.656821969e-23)
(-0.2104622466 -0.03471424282 -8.265259948e-24)
(-0.2137208546 -0.08376563859 3.371862446e-22)
(-0.2078215513 -0.1318756383 0)
(-0.1908238548 -0.1732756178 2.420924164e-22)
(-0.1616335749 -0.2002593436 5.774804674e-24)
(-0.1211662701 -0.2040121745 -5.860924093e-24)
(-0.07384989882 -0.1772119983 1.548457361e-22)
(-0.02971786872 -0.1188642342 -5.435489121e-24)
(-0.002179545244 -0.04005398765 0)
(-0.0002117197055 0.04671640077 0)
(-0.01125001092 0.110549815 0)
(-0.02815624494 0.1497355036 -5.022765676e-22)
(-0.04874479271 0.1701517639 -1.88100063e-23)
(-0.0710008654 0.1766257181 2.038381533e-23)
(-0.09399451421 0.1724526544 -2.014313997e-23)
(-0.1171434303 0.1594871016 -2.31688678e-23)
(-0.1400179517 0.1384805105 -3.029828255e-22)
(-0.1621328906 0.1095160731 6.698615421e-23)
(-0.1827959048 0.0724518706 4.513183004e-23)
(-0.2009835563 0.02734928884 -4.577725447e-23)
(-0.2152270266 -0.02508697788 0)
(-0.2235562214 -0.08298351477 -7.83970112e-23)
(-0.2234632198 -0.1427257353 0)
(-0.2120679433 -0.1981820911 -3.739567149e-22)
(-0.1867434552 -0.2400773732 5.244963804e-22)
(-0.1464438308 -0.2560773449 0)
(-0.09394567768 -0.2331209536 -1.494003163e-22)
(-0.04022001014 -0.163961368 1.937560125e-22)
(-0.00320110028 -0.05861063199 -3.411539715e-22)
(-0.0002015408518 0.05297585225 0)
(-0.01067261908 0.1248172411 9.182880472e-22)
(-0.02628446706 0.1687424609 -2.440688443e-23)
(-0.0450110774 0.1916455171 9.193348113e-22)
(-0.06494597332 0.1992921085 -2.512089242e-23)
(-0.08536628358 0.1956104348 2.838847676e-23)
(-0.1059305639 0.182788687 -2.812933704e-23)
(-0.1264924187 0.161658353 -1.660919741e-23)
(-0.1468996848 0.1321762315 -5.26023434e-22)
(-0.1668458154 0.09389646723 -8.906636782e-24)
(-0.1857303017 0.04640576343 9.660203803e-24)
(-0.2024781678 -0.01023784753 3.31308026e-22)
(-0.2154154607 -0.07499820406 -5.82074495e-22)
(-0.222020971 -0.1450311854 0)
(-0.21880321 -0.2146760642 8.887333474e-22)
(-0.2016257522 -0.2740016455 -4.940895859e-22)
(-0.1668639192 -0.3075811992 -1.572226158e-23)
(-0.1140220094 -0.2953811945 0)
(-0.0528848202 -0.2195802602 -1.890193661e-22)
(-0.00474918811 -0.08377278037 3.360597322e-22)
(-0.0003641988125 0.05902317921 1.551012078e-23)
(-0.01049574033 0.1379881527 -8.764207638e-22)
(-0.02441389579 0.185680413 -1.157060178e-21)
(-0.04026724323 0.2101384781 -8.628996451e-22)
(-0.05630729365 0.2182348941 0)
(-0.07214856253 0.2146190298 3.513809053e-23)
(-0.0877922137 0.2018791981 -7.294874239e-23)
(-0.1034562774 0.181000563 5.867890556e-23)
(-0.1193983859 0.1518997256 3.021369697e-22)
(-0.1357931531 0.1139150577 -1.128196723e-23)
(-0.1526082304 0.06621424982 0)
(-0.169452136 0.008177203301 -3.603932564e-22)
(-0.1852760587 -0.06015987752 7.515673823e-22)
(-0.1980448511 -0.1372747022 8.831710358e-22)
(-0.2043546259 -0.2189261905 -5.296632514e-22)
(-0.1990977609 -0.2959712936 5.162694919e-22)
(-0.1760605327 -0.3514072617 1.078235922e-23)
(-0.1300890629 -0.3584150813 -1.09555101e-23)
(-0.06688803295 -0.2843276535 -8.21523437e-23)
(-0.007083319858 -0.1169964427 0)
(-0.0009095780952 0.0654004169 -1.911488724e-23)
(-0.01167591841 0.1502816437 -1.326966759e-21)
(-0.0238888212 0.2000659589 1.094238503e-21)
(-0.03601340285 0.2244216996 6.734935229e-22)
(-0.04657308443 0.2316588273 6.014636476e-22)
(-0.05577038123 0.2272393722 6.643962421e-22)
(-0.06411245385 0.2141774896 -4.458681496e-23)
(-0.07227561329 0.1936494393 -3.461339832e-22)
(-0.08096972652 0.1656028321 2.152163969e-22)
(-0.09087192008 0.1292707353 0)
(-0.1025547421 0.08353082406 0)
(-0.1163622128 0.02720010634 2.65539844e-22)
(-0.1321589536 -0.04062006118 8.194326642e-23)
(-0.1489252301 -0.1200128319 -2.821625947e-22)
(-0.1641284268 -0.2089300702 -5.411275212e-23)
(-0.1727877608 -0.300699252 1.301952223e-22)
(-0.1670311296 -0.3793329118 -3.400509692e-22)
(-0.1365292433 -0.4136451988 -1.593803645e-23)
(-0.08018250112 -0.3538326221 8.204007162e-23)
(-0.01050762285 -0.1594130578 -6.032152683e-22)
(-0.002260498904 0.07348883615 0)
(-0.01580355784 0.1626521793 2.145876401e-21)
(-0.02665042659 0.2117904765 0)
(-0.03422339511 0.2333947299 -1.351808888e-21)
(-0.03759398242 0.2377766849 6.184054221e-23)
(-0.03799684923 0.231255354 -6.193099705e-22)
(-0.03668265584 0.2171899018 -4.756287575e-22)
(-0.0348903605 0.1968934491 8.301260643e-22)
(-0.0337883762 0.1703342374 -1.885699385e-22)
(-0.03449876125 0.1367221062 0)
(-0.03811572393 0.09479673472 0)
(-0.04564992145 0.04304286437 2.410614933e-23)
(-0.05790804084 -0.02013781357 -6.007201818e-22)
(-0.07514598397 -0.0962065031 -4.309569453e-22)
(-0.09645174884 -0.185555618 4.637865054e-22)
(-0.1183462608 -0.2853567778 -6.488740397e-22)
(-0.1332715374 -0.3838386542 9.11994981e-23)
(-0.1265350981 -0.4504358724 2.937286291e-23)
(-0.0889915405 -0.4198536386 5.66044122e-22)
(-0.01526917924 -0.2111719738 6.020785438e-22)
(-0.00518089994 0.08598045987 0)
(-0.02525550816 0.1766291202 1.465579505e-22)
(-0.03483408079 0.2205961575 -4.917147596e-23)
(-0.03640013847 0.2354859369 7.642935318e-22)
(-0.03018482879 0.2343406767 -7.005382332e-22)
(-0.01916579178 0.224160389 4.746483585e-23)
(-0.005615147527 0.2083525844 -1.01861009e-22)
(0.008569610573 0.188124108 -3.389890619e-22)
(0.02179886481 0.1633911257 2.062823633e-22)
(0.03262781807 0.1333242716 0)
(0.03958458903 0.09664086017 0)
(0.04117013576 0.05174056284 -2.90266897e-22)
(0.03578484088 -0.003255399159 0)
(0.02198184889 -0.07058360942 -5.512189405e-22)
(-0.001264844445 -0.1525735513 -1.492377694e-23)
(-0.03310469745 -0.2505949851 2.559743171e-23)
(-0.06909235695 -0.3599341519 2.203146208e-22)
(-0.09227826907 -0.457542453 4.788067505e-24)
(-0.08718089875 -0.469812942 -5.789409484e-22)
(-0.02103127141 -0.26989723 0)
(-0.01111631593 0.1085974969 0)
(-0.0424890193 0.1947151672 -8.848484376e-22)
(-0.04795528987 0.2258195519 -5.411042516e-22)
(-0.03919535974 0.2282135571 4.543819258e-22)
(-0.01877830233 0.218232815 -1.709984691e-24)
(0.007664315282 0.2028220366 -4.561052135e-23)
(0.03667993566 0.1847619775 5.69668499e-22)
(0.0658299878 0.1647118219 -2.766891579e-23)
(0.09327131128 0.1423128179 -2.069782533e-22)
(0.1173891635 0.1166274937 3.142214695e-23)
(0.1365461716 0.08641143844 -3.425918396e-23)
(0.1489669294 0.05017668963 -3.690595459e-23)
(0.1525275803 0.006159166211 3.205634769e-22)
(0.1449367047 -0.04796127093 6.119608836e-22)
(0.1235159802 -0.1153052913 -5.101174119e-22)
(0.08633533514 -0.2004195651 -1.616060193e-22)
(0.03199089365 -0.3067806591 1.531306118e-22)
(-0.02362123092 -0.4239837146 7.29365091e-23)
(-0.06492413021 -0.4871612791 1.913291385e-21)
(-0.02509971698 -0.3291544746 2.954991204e-21)
(-0.02004680524 0.1460727393 -4.390209228e-23)
(-0.06416406265 0.2112955844 4.417381988e-23)
(-0.05070230542 0.2177300483 1.000189063e-21)
(-0.01934097349 0.2014679997 -8.270551487e-24)
(0.02414464967 0.1809076201 0)
(0.0715412213 0.1606933374 4.3637249e-23)
(0.1190703415 0.1416495519 -2.273853211e-22)
(0.1644767344 0.1233181846 -9.027962772e-23)
(0.2062251173 0.1048117315 3.680736721e-23)
(0.2429643041 0.08507140247 -1.701655569e-23)
(0.2732207599 0.06296147779 3.429971705e-23)
(0.2952536129 0.03726293866 -6.592684091e-23)
(0.3066971078 0.006535068115 -9.303908641e-23)
(0.3049738327 -0.03087770071 1.517044991e-22)
(0.286393626 -0.07786290992 0)
(0.2470568092 -0.139930037 1.505613445e-22)
(0.1810922242 -0.2266299752 2.560013713e-22)
(0.09604450293 -0.3443894947 0)
(-0.006697615622 -0.4552210219 -3.67563445e-21)
(-0.01922408197 -0.3777537589 -2.892620685e-21)
(-0.02591951388 0.2276828794 -9.514205493e-22)
(-0.03998324595 0.2238216524 -1.388976891e-22)
(0.03656137001 0.1810585364 -2.335583119e-22)
(0.1090503051 0.1451059103 -1.193742693e-22)
(0.1817191202 0.1172445515 -4.295829457e-23)
(0.2490090742 0.09627907884 9.783192337e-23)
(0.3100336712 0.08002510689 -1.408593643e-22)
(0.3646209343 0.06656815601 1.297176273e-22)
(0.4126252506 0.05449179121 -8.620126125e-23)
(0.4536250313 0.042708951 1.132187726e-25)
(0.4867878738 0.03032298527 1.527742562e-23)
(0.5107451379 0.01652901904 7.997208901e-23)
(0.5236597469 0.000536514395 -1.811124786e-22)
(0.5231798025 -0.01863373263 -1.617147122e-22)
(0.5052323429 -0.0428647897 -4.262959707e-23)
(0.4658715088 -0.07633231192 0)
(0.3952696502 -0.1286089384 -1.846476432e-22)
(0.2916071051 -0.2208468098 8.148762415e-22)
(0.1197455107 -0.3525016903 1.631601423e-21)
(0.02670547262 -0.3775497979 2.172655833e-21)
(0.2142894469 0.1347447206 9.864990566e-22)
(0.2776311189 0.09870503605 0)
(0.4316592297 0.05810414857 -2.594322167e-22)
(0.5304749353 0.03846265012 -1.741667957e-22)
(0.6016965758 0.02623419191 0)
(0.6571198967 0.01831923561 -6.009099372e-23)
(0.701521361 0.01313600937 6.37800888e-23)
(0.7376042507 0.009542127183 -1.800158356e-23)
(0.7669368421 0.00680446428 2.885976837e-23)
(0.7902106689 0.004464744331 2.315034878e-23)
(0.8074555014 0.002221320033 0)
(0.8182621358 -0.0001500749993 -2.873034512e-23)
(0.8216499719 -0.00272384837 0)
(0.81623942 -0.005712668726 2.738153713e-23)
(0.7991333151 -0.009611382859 1.421694476e-23)
(0.7679986346 -0.01500255105 -5.799401191e-23)
(0.7106555755 -0.0250251995 -2.535660349e-22)
(0.623518398 -0.04204285405 -6.918100966e-22)
(0.4230091021 -0.09182968079 0)
(0.2705674689 -0.1524021841 -2.119483699e-21)
)


// ************************************************************************* //
