/*--------------------------------*- C++ -*----------------------------------*\
  =========                 |
  \\      /  F ield         | OpenFOAM: The Open Source CFD Toolbox
   \\    /   O peration     | Website:  https://openfoam.org
    \\  /    A nd           | Version:  13
     \\/     M anipulation  |
\*---------------------------------------------------------------------------*/
FoamFile
{
    format      ascii;
    class       scalarField;
    location    "15.4";
    object      p_all;
}
// * * * * * * * * * * * * * * * * * * * * * * * * * * * * * * * * * * * * * //


400
(
5.667084625e-07
-0.0005443574523
-0.0008842731121
-0.001009886231
-0.0009294833786
-0.0006753764834
-0.0002850715789
0.0002055121188
0.0007599370564
0.001337835734
0.001893680273
0.00237478335
0.002725878156
0.002893963396
0.002837515715
0.002538427664
0.002016869544
0.001329793736
0.0006731024993
7.871878928e-05
0.0005864016127
7.614703141e-06
-0.0003539618342
-0.0004943742777
-0.0004619419974
-0.0002832140544
1.243756465e-05
0.0003957318633
0.0008352861327
0.001293924908
0.00173192304
0.002098237366
0.002342594744
0.002417714727
0.002289718167
0.001949703581
0.001424154301
0.0007778168952
0.0001823221879
-0.000479057039
0.0009485597358
0.0003069127502
-9.203513514e-05
-0.000236380645
-0.000228251789
-9.769341372e-05
0.0001312206616
0.0004371443051
0.0007963330355
0.001177055148
0.001546696098
0.001852121608
0.002043274994
0.002071503997
0.001901676768
0.001523860792
0.0009618028487
0.0002717818868
-0.0004245547862
-0.001259564787
0.0009710347292
0.0002559033657
-0.0001918266878
-0.0003419852181
-0.0003489234021
-0.0002494038061
-6.415758798e-05
0.0001940882779
0.0005116552888
0.0008680432933
0.001222833611
0.001532515522
0.001736631563
0.001774808581
0.001598240707
0.001183485226
0.0005421904508
-0.000279127715
-0.001191811483
-0.002339452858
0.0004760311658
-0.00028636133
-0.0007626241012
-0.0009119776523
-0.0009302270733
-0.0008586016883
-0.0007122579569
-0.0004918966994
-0.0001974561264
0.0001616205686
0.000554986174
0.0009344016053
0.001228869715
0.001357722351
0.001244718636
0.0008367299244
0.000119647668
-0.0008746107705
-0.00208136903
-0.003605985718
-0.0006875552073
-0.001465446479
-0.001951842308
-0.002100250729
-0.002139613685
-0.002112150289
-0.002023273351
-0.001856180771
-0.001590000357
-0.00121459472
-0.0007455726021
-0.0002274208113
0.0002574651708
0.0005995892218
0.0006773934398
0.0003830376272
-0.0003489148819
-0.001516691805
-0.003083743517
-0.005086255516
-0.002656723394
-0.003416038021
-0.003905290944
-0.004067582076
-0.004160633698
-0.004224320851
-0.004249402109
-0.004194440659
-0.004007541078
-0.003645367442
-0.003093637981
-0.002378089833
-0.001584434254
-0.0008546288427
-0.0003763666029
-0.0003500296098
-0.0009383000955
-0.002208024064
-0.004176267418
-0.006766476771
-0.005540577147
-0.006253844234
-0.006749569858
-0.006959809939
-0.007167689849
-0.007408593782
-0.007654492952
-0.007831767928
-0.007844781038
-0.007597820126
-0.007021270091
-0.006092101206
-0.004877159454
-0.003540600301
-0.002352645908
-0.001655800632
-0.001785604238
-0.002956352522
-0.005306303077
-0.008594469929
-0.009408866981
-0.0100544613
-0.01056882359
-0.01087659369
-0.01128506287
-0.0118260264
-0.01245137819
-0.01304970252
-0.01346887992
-0.01353749626
-0.01309229959
-0.01203002988
-0.01033901371
-0.008172189649
-0.00587814232
-0.003989968358
-0.00312288421
-0.003777432875
-0.006358715311
-0.01041865463
-0.01427704358
-0.01483633435
-0.01538092468
-0.01583492964
-0.01653437998
-0.01751361335
-0.01870816853
-0.01996793209
-0.02107535514
-0.02176288764
-0.02174160747
-0.02075547591
-0.01865822065
-0.01551313054
-0.01169740355
-0.007949843738
-0.005281295725
-0.004686979633
-0.007108401656
-0.01190253431
-0.02010060445
-0.02055226338
-0.02112033457
-0.02173657532
-0.02278239381
-0.02430811856
-0.02624278737
-0.02840293249
-0.03050421388
-0.03217052729
-0.03295675484
-0.03240144377
-0.03014721645
-0.02605168116
-0.02040941135
-0.01410167863
-0.008602015869
-0.005646585088
-0.007143094842
-0.01238871339
-0.02678982362
-0.02709820675
-0.02763714429
-0.02835183381
-0.02970804651
-0.03179459818
-0.03454914693
-0.0377647803
-0.04109589936
-0.04405748355
-0.04603575297
-0.04632728476
-0.04431623704
-0.03952240567
-0.03199582149
-0.02258790732
-0.01317036229
-0.006402117765
-0.005732197006
-0.01069068253
-0.03425797254
-0.0343452113
-0.03471616934
-0.03532640849
-0.03680428392
-0.03930923701
-0.04280406279
-0.04706685338
-0.05169682041
-0.05610707365
-0.05952565775
-0.06103898495
-0.05963538659
-0.05452226011
-0.04532012675
-0.03259227232
-0.01835942303
-0.006164772084
-0.001602350821
-0.004807534714
-0.04252673385
-0.04220126857
-0.04211880059
-0.04221613421
-0.04342605289
-0.04601670193
-0.04998552411
-0.05509265083
-0.06087644957
-0.06665191296
-0.07149631967
-0.07427537399
-0.07370556758
-0.06856070322
-0.05797085239
-0.04197259191
-0.02236161708
-0.003188404806
0.007406836233
0.008393293395
-0.05192563409
-0.05068226133
-0.04960261938
-0.04850345414
-0.04884588322
-0.05102892878
-0.05506797362
-0.06067917921
-0.06730875574
-0.07415975911
-0.08015618813
-0.08395952516
-0.08402864855
-0.07875159977
-0.06677184668
-0.04746362246
-0.02207576087
0.00554771301
0.02475568179
0.03355998109
-0.06357512947
-0.06011525566
-0.05702950017
-0.05369943079
-0.05239762675
-0.05360313388
-0.05727266362
-0.06303835658
-0.07015137115
-0.07768757892
-0.08438491713
-0.08869105989
-0.08882324217
-0.08278245768
-0.06881123517
-0.04559326565
-0.0137325174
0.02443454037
0.05555518375
0.07736702109
-0.08011563079
-0.07101169811
-0.06406674469
-0.0571168104
-0.0533817516
-0.05315697715
-0.05618691851
-0.06182846496
-0.06916344454
-0.07701905856
-0.08392033065
-0.08807348083
-0.08741965658
-0.07962022583
-0.06246398374
-0.03405065363
0.005547374989
0.05859673544
0.1058165436
0.148059578
-0.1104519387
-0.08580715948
-0.07157029134
-0.05894245986
-0.05188442138
-0.04984368653
-0.05204821431
-0.05743895133
-0.06477844824
-0.07262372678
-0.07926055581
-0.08264793812
-0.08047637618
-0.06986354323
-0.04822988414
-0.01273664569
0.03821159116
0.1071090325
0.177955336
0.2564520906
-0.1683962393
-0.09987406348
-0.07498747564
-0.0547849162
-0.04460450142
-0.04156002708
-0.04367641057
-0.04932384204
-0.05694694125
-0.06489528502
-0.07128954668
-0.07391915313
-0.07008492832
-0.05699263693
-0.03102843134
0.01191269345
0.07557195877
0.1663736513
0.2761307196
0.4376748623
-0.3983884952
-0.1380685067
-0.07495375642
-0.0470810334
-0.033541378
-0.03001188335
-0.03276822788
-0.0392144883
-0.04749515604
-0.05586926111
-0.0624320069
-0.06497079517
-0.06095190269
-0.04694606357
-0.0187525187
0.02992349316
0.1069325284
0.2333994535
0.4198512408
0.7799955229
)


// ************************************************************************* //
