/*--------------------------------*- C++ -*----------------------------------*\
  =========                 |
  \\      /  F ield         | OpenFOAM: The Open Source CFD Toolbox
   \\    /   O peration     | Website:  https://openfoam.org
    \\  /    A nd           | Version:  13
     \\/     M anipulation  |
\*---------------------------------------------------------------------------*/
FoamFile
{
    format      ascii;
    class       scalarField;
    location    "44.73";
    object      p_all;
}
// * * * * * * * * * * * * * * * * * * * * * * * * * * * * * * * * * * * * * //


400
(
2.128701085e-08
-0.0005474832014
-0.0008895366487
-0.001017028382
-0.0009381660616
-0.0006853092862
-0.0002960302606
0.0001936854355
0.0007473188355
0.001324384613
0.001879235382
0.00235900451
0.002708295273
0.002874018554
0.002814651114
0.00251220553
0.001987151097
0.001296619001
0.0006376852683
4.177594406e-05
0.0005881754951
6.877097736e-06
-0.0003568676305
-0.0004992063129
-0.0004685540865
-0.000291480524
2.623550452e-06
0.0003844612646
0.0008226241145
0.001279853243
0.001716309807
0.002080838338
0.002323062354
0.002395611206
0.002264615089
0.001921306414
0.001392436783
0.0007430592327
0.0001454053467
-0.0005172953645
0.0009524304989
0.0003080253083
-9.323080419e-05
-0.0002395735532
-0.0002334657247
-0.0001049725603
0.0001218681163
0.0004257608079
0.000782964733
0.001161470404
0.001529482492
0.001832875255
0.002021722678
0.002047301316
0.001874473187
0.00149342041
0.000928121672
0.0002351323962
-0.0004633526951
-0.001300338097
0.0009761343309
0.0002579659305
-0.000192279086
-0.0003445757067
-0.0003538462498
-0.0002568777304
-7.429887044e-05
0.0001813012914
0.0004963771342
0.0008506863818
0.00120303155
0.001510497431
0.00171228819
0.001747876118
0.001568394222
0.001150454256
0.0005058729756
-0.0003186182043
-0.001233966204
-0.002384774741
0.0004804750893
-0.0002850203876
-0.0007639251674
-0.0009156234171
-0.0009366475175
-0.0008682271931
-0.0007253306769
-0.0005084049087
-0.0002171624951
0.0001391481705
0.0005300901497
0.0009073884206
0.001199818905
0.001326499196
0.001211019295
0.0008001836616
7.993840296e-05
-0.0009176622538
-0.002127656887
-0.003656161377
-0.0006863649782
-0.001467157419
-0.001956212751
-0.00210726914
-0.002150047026
-0.002126696063
-0.002042316359
-0.001879698012
-0.001617587472
-0.001245556131
-0.000779141945
-0.0002628850802
0.0002205911918
0.0005614569554
0.00063780343
0.0003414996348
-0.0003930547947
-0.001564091327
-0.003134880215
-0.005142119157
-0.002661835297
-0.003423545792
-0.00391541606
-0.004080800678
-0.004178172996
-0.004247227361
-0.004278244796
-0.004229188625
-0.004047585363
-0.003689634086
-0.00314078311
-0.002426787654
-0.001633547442
-0.0009034828783
-0.000424876283
-0.0003987399293
-0.0009882831509
-0.002260621309
-0.004232781522
-0.006828360689
-0.005555041859
-0.006269961831
-0.006768247027
-0.006982196878
-0.007195592052
-0.00744349492
-0.007697202953
-0.007882267956
-0.007902232836
-0.007660674147
-0.007087408089
-0.006159554155
-0.004943809482
-0.003604935018
-0.002414006897
-0.001714588882
-0.001843273123
-0.003015084939
-0.005368518787
-0.008662313775
-0.009435269148
-0.0100816032
-0.01059846842
-0.01091070806
-0.01132611455
-0.01187600446
-0.01251138594
-0.01311976286
-0.01354792246
-0.01362349179
-0.01318261314
-0.01212125704
-0.01042816367
-0.008256698925
-0.005956474386
-0.004062052358
-0.00319031658
-0.003843216338
-0.006426611322
-0.01049179998
-0.01431703805
-0.01487603117
-0.01542301899
-0.0158822621
-0.01659010205
-0.0175802386
-0.0187871046
-0.02005924062
-0.02117773073
-0.02187378558
-0.02185756337
-0.02087244487
-0.01877210268
-0.0156202767
-0.01179525121
-0.008037514536
-0.005360073038
-0.004760331357
-0.007181351664
-0.01197943333
-0.02015454641
-0.02060477572
-0.02117496583
-0.02179697032
-0.02285232769
-0.02439058856
-0.02633946245
-0.02851385366
-0.03062779969
-0.03230373729
-0.03309549498
-0.03254094279
-0.03028271877
-0.02617891686
-0.02052511205
-0.01420414166
-0.008691750774
-0.005726820501
-0.007219466331
-0.0124666139
-0.0268565761
-0.02716233373
-0.02770276953
-0.0284231858
-0.02978938806
-0.03188933015
-0.03465912048
-0.03788988817
-0.04123417809
-0.04420530764
-0.04618838409
-0.04647903248
-0.04446333089
-0.03966027666
-0.03212126109
-0.02269898392
-0.01326679042
-0.006486149992
-0.005808841566
-0.01076543787
-0.03433493819
-0.03441834521
-0.03478968137
-0.03540476363
-0.03689207673
-0.03941023317
-0.04292028164
-0.04719792114
-0.05184031919
-0.056258638
-0.05967999784
-0.06119116205
-0.05977978467
-0.05465602799
-0.04544130192
-0.03269994119
-0.01845331993
-0.006246126856
-0.001674170654
-0.004873805638
-0.04261007963
-0.04227964988
-0.04219586685
-0.04229618576
-0.0435139332
-0.04611663276
-0.05009985419
-0.05522062997
-0.06101531653
-0.06679643187
-0.07164037994
-0.07441328135
-0.07383284037
-0.06867515685
-0.0580722161
-0.0420620861
-0.0224402939
-0.00325746097
0.007346832856
0.008341228673
-0.05201058404
-0.05076123761
-0.04967805906
-0.04857915695
-0.04892702278
-0.05112045408
-0.05517315535
-0.06079650893
-0.06743582098
-0.07429019198
-0.08028307308
-0.08407652816
-0.08413096031
-0.07883784439
-0.06684310405
-0.04752370984
-0.02212773638
0.0055015278
0.0247151302
0.03352717057
-0.06365618235
-0.06018947904
-0.05709762327
-0.05376467333
-0.05246581786
-0.05368048968
-0.05736534014
-0.06313854307
-0.07026301907
-0.07780148498
-0.08449317687
-0.08878639142
-0.08889871046
-0.08283998388
-0.0688510657
-0.04562108543
-0.01375176129
0.02441667238
0.05553942598
0.07735566673
-0.08018673693
-0.07107529282
-0.0641215486
-0.05716585394
-0.05343201751
-0.05321610769
-0.05625987146
-0.06191490251
-0.06926005273
-0.07711804426
-0.08401330952
-0.08815276733
-0.08748119896
-0.07965691651
-0.0624797609
-0.03405067145
0.005564720829
0.0585939006
0.1058229409
0.1480676489
-0.1105081195
-0.08585542665
-0.0716073946
-0.05897243113
-0.05191484153
-0.04988459948
-0.05210442115
-0.0575105866
-0.06486141911
-0.07271030482
-0.07934172421
-0.08271501994
-0.08052074308
-0.06988764229
-0.04823270462
-0.01272273662
0.03823604325
0.1071320126
0.1779785759
0.2564764148
-0.1684382919
-0.09990958498
-0.07500968283
-0.05479931078
-0.04462046343
-0.04158701007
-0.04371965697
-0.04938360142
-0.05701926851
-0.06497284285
-0.07136371024
-0.07398197928
-0.07013077096
-0.05701424419
-0.03102884159
0.01192920247
0.07559939432
0.1664041631
0.2761619422
0.4377042055
-0.3984295719
-0.1381007331
-0.07497184441
-0.04708986342
-0.03355094441
-0.03003176402
-0.03280398578
-0.03926681335
-0.04756061384
-0.05594117079
-0.06250218428
-0.06503124723
-0.06099647808
-0.04697026717
-0.01875705469
0.02993532942
0.1069555867
0.2334271766
0.4198801322
0.780023314
)


// ************************************************************************* //
