/*--------------------------------*- C++ -*----------------------------------*\
  =========                 |
  \\      /  F ield         | OpenFOAM: The Open Source CFD Toolbox
   \\    /   O peration     | Website:  https://openfoam.org
    \\  /    A nd           | Version:  13
     \\/     M anipulation  |
\*---------------------------------------------------------------------------*/
FoamFile
{
    format      ascii;
    class       volScalarField;
    location    "50";
    object      p;
}
// * * * * * * * * * * * * * * * * * * * * * * * * * * * * * * * * * * * * * //

dimensions      [0 2 -2 0 0 0 0];

internalField   nonuniform List<scalar> 
400
(
6.157097041e-09
-0.000547501052
-0.0008895531524
-0.001017046032
-0.0009381888085
-0.0006853341025
-0.0002960495143
0.0001936756246
0.0007473139368
0.001324375495
0.001879216567
0.002358978138
0.002708268147
0.002873996767
0.002814636193
0.002512194673
0.001987140981
0.001296609999
0.0006376814393
4.177899404e-05
0.0005881575711
6.857117223e-06
-0.0003568856442
-0.0004992189265
-0.0004685664906
-0.000291500101
2.595565776e-06
0.0003844315931
0.000822601197
0.001279839527
0.001716300444
0.002080826354
0.00232304431
0.002395588973
0.002264592927
0.001921286747
0.001392419656
0.0007430455017
0.0001453973902
-0.0005172947313
0.0009524143343
0.000308006329
-9.325381307e-05
-0.0002395936292
-0.0002334791108
-0.0001049820828
0.0001218560415
0.0004257423867
0.0007829421231
0.001161448636
0.001529465552
0.001832861103
0.002021707511
0.00204728207
0.001874449035
0.00149339223
0.0009280921517
0.0002351076581
-0.0004633666065
-0.00130034463
0.0009761192772
0.00025795327
-0.0001922979431
-0.0003445995
-0.0003538693402
-0.0002568954921
-7.431150941e-05
0.0001812895291
0.0004963623674
0.0008506690748
0.00120301274
0.001510479519
0.001712271645
0.001747859233
0.001568373915
0.001150428004
0.0005058420064
-0.0003186468892
-0.001233984603
-0.002384787595
0.0004804557568
-0.0002850332352
-0.0007639373686
-0.0009156398748
-0.0009366685822
-0.0008682494715
-0.0007253502614
-0.0005084205371
-0.000217176041
0.0001391340888
0.0005300743376
0.0009073718987
0.001199803715
0.001326486055
0.001211005622
0.0008001648731
7.991309909e-05
-0.000917688576
-0.002127676965
-0.00365617853
-0.0006863862427
-0.00146717726
-0.001956227932
-0.002107282741
-0.002150062511
-0.002126714905
-0.002042337349
-0.001879718539
-0.001617605776
-0.001245572583
-0.000779157657
-0.0002629003935
0.0002205775236
0.0005614461
0.0006377936318
0.0003414863293
-0.0003930742044
-0.001564113528
-0.00313490027
-0.005142138669
-0.002661851574
-0.00342356684
-0.003915436161
-0.004080817818
-0.00417818795
-0.004247242554
-0.004278262301
-0.004229208496
-0.004047605967
-0.003689654073
-0.003140802067
-0.002426805397
-0.001633563037
-0.0009034953656
-0.0004248868894
-0.0003987522627
-0.0009882996601
-0.00226064053
-0.004232801042
-0.006828380842
-0.005555054979
-0.006269978263
-0.006768266696
-0.006982216544
-0.007195609415
-0.007443510133
-0.007697218061
-0.0078822848
-0.007902251716
-0.007660694433
-0.007087429069
-0.006159574986
-0.004943828801
-0.003604951481
-0.002414020938
-0.00171460289
-0.001843289006
-0.003015102545
-0.005368537588
-0.008662333427
-0.009435284552
-0.01008161718
-0.01059848521
-0.01091072666
-0.0113261326
-0.01187602068
-0.01251140084
-0.01311977786
-0.01354793865
-0.01362350971
-0.0131826329
-0.01212127826
-0.0104281849
-0.008256718353
-0.005956491441
-0.004062068156
-0.00319033248
-0.003843233002
-0.006426629258
-0.0104918186
-0.01431705619
-0.01487604698
-0.01542303531
-0.01588227939
-0.0165901194
-0.01758025518
-0.01878712029
-0.02005925581
-0.02117774596
-0.02187380152
-0.02185758079
-0.02087246415
-0.01877212311
-0.01562029669
-0.01179526956
-0.008037531296
-0.005360089003
-0.004760347483
-0.007181368808
-0.01197945089
-0.02015456409
-0.02060479374
-0.02117498394
-0.02179698827
-0.02285234516
-0.02439060564
-0.02633947943
-0.02851387053
-0.03062781615
-0.03230375328
-0.03309551115
-0.03254096009
-0.03028273751
-0.02617893619
-0.02052513076
-0.01420415915
-0.008691767239
-0.00572683673
-0.007219483105
-0.01246663076
-0.02685659186
-0.02716235173
-0.02770278906
-0.02842320532
-0.02978940662
-0.03188934806
-0.03465913862
-0.03788990678
-0.04123419649
-0.04420532495
-0.04618840039
-0.04647904887
-0.04446334849
-0.0396602954
-0.03212128017
-0.02269900246
-0.01326680808
-0.00648616709
-0.005808858564
-0.01076545462
-0.03433495325
-0.03441836208
-0.03478970083
-0.03540478383
-0.03689209602
-0.03941025131
-0.04292029961
-0.0471979398
-0.05184033819
-0.05625865615
-0.05968001457
-0.06119117818
-0.0597798014
-0.05465604607
-0.04544132108
-0.03269996058
-0.01845333886
-0.006246145092
-0.001674188254
-0.004873822794
-0.0426100955
-0.0422796663
-0.04219588535
-0.0422962051
-0.04351395202
-0.04611665029
-0.0500998709
-0.05522064705
-0.06101533428
-0.06679644943
-0.07164039645
-0.07441329701
-0.07383285625
-0.06867517392
-0.05807223455
-0.04206210538
-0.02244031328
-0.003257479891
0.007346814691
0.008341210896
-0.05201060089
-0.05076125466
-0.04967807681
-0.04857917469
-0.04892704029
-0.05112047101
-0.05517317167
-0.0607965254
-0.06743583799
-0.074290209
-0.08028308937
-0.08407654361
-0.08413097565
-0.0788378605
-0.06684312136
-0.04752372822
-0.02212775535
0.00550150883
0.02471511172
0.03352715225
-0.0636561994
-0.06018949695
-0.05709764142
-0.05376469065
-0.05246583473
-0.05368050676
-0.05736535769
-0.06313856135
-0.07026303802
-0.07780150383
-0.08449319478
-0.08878640812
-0.08889872638
-0.0828399997
-0.06885108222
-0.04562110291
-0.01375177957
0.02441665367
0.05553940739
0.0773556481
-0.08018675367
-0.07107531068
-0.0641215678
-0.05716587292
-0.05343203578
-0.05321612579
-0.05625989027
-0.06191492258
-0.06926007381
-0.07711806541
-0.08401332966
-0.08815278589
-0.08748121597
-0.0796569328
-0.06247977731
-0.03405068847
0.005564703165
0.05859388215
0.1058229223
0.1480676302
-0.1105081365
-0.08585544312
-0.07160741364
-0.05897245106
-0.05191486128
-0.04988461858
-0.05210444
-0.05751060588
-0.06486143902
-0.07271032492
-0.07934174374
-0.08271503834
-0.08052076033
-0.06988765905
-0.04823272126
-0.01272275356
0.03823602583
0.1071319947
0.1779785576
0.2564763964
-0.1684383099
-0.09990959952
-0.07500970154
-0.05479932876
-0.04462048092
-0.04158702678
-0.04371967289
-0.04938361693
-0.05701928412
-0.06497285883
-0.0713637266
-0.07398199583
-0.07013078776
-0.05701426095
-0.03102885833
0.01192918562
0.07559937719
0.1664041456
0.2761619243
0.4377041873
-0.3984295917
-0.1381007511
-0.07497186227
-0.04708988007
-0.03355095978
-0.03003177823
-0.03280399908
-0.03926682628
-0.04756062713
-0.05594118503
-0.06250219965
-0.06503126353
-0.0609964949
-0.04697028403
-0.01875707139
0.02993531275
0.1069555698
0.2334271592
0.4198801143
0.7800232959
)
;

boundaryField
{
    movingWall
    {
        type            zeroGradient;
    }
    fixedWalls
    {
        type            zeroGradient;
    }
    frontAndBack
    {
        type            empty;
    }
}


// ************************************************************************* //
