/*--------------------------------*- C++ -*----------------------------------*\
  =========                 |
  \\      /  F ield         | OpenFOAM: The Open Source CFD Toolbox
   \\    /   O peration     | Website:  https://openfoam.org
    \\  /    A nd           | Version:  13
     \\/     M anipulation  |
\*---------------------------------------------------------------------------*/
FoamFile
{
    format      ascii;
    class       scalarField;
    location    "50";
    object      p_all;
}
// * * * * * * * * * * * * * * * * * * * * * * * * * * * * * * * * * * * * * //


400
(
1.165484759e-06
-0.0005281887183
-0.001175760942
-0.001677946832
-0.001914676547
-0.00183641005
-0.001418443723
-0.0006496266459
0.0004611201374
0.001869609876
0.003481286588
0.005144935561
0.006663753125
0.007827157877
0.008461317411
0.008485877874
0.007957302586
0.007082669039
0.006195253832
0.00564096961
0.0005402644715
-8.488815428e-06
-0.0005809035561
-0.0009822617601
-0.001160590379
-0.001088937467
-0.0007458959368
-0.0001161523952
0.0008008676631
0.001976131364
0.003335988374
0.004755021775
0.006063396976
0.007075350774
0.007635126104
0.007669329318
0.007225298476
0.006476043285
0.005683832158
0.005119984899
0.001213874035
0.0005273399444
-7.761794018e-05
-0.0004438006909
-0.0006069411294
-0.0005745000356
-0.0003308575624
0.0001468756214
0.0008754833124
0.001847822672
0.003014288958
0.004271088031
0.005463313804
0.006409680964
0.006948113536
0.006990594418
0.006564063885
0.005809529936
0.004932604502
0.004198308579
0.001698093924
0.0008127994856
8.965951786e-05
-0.0003199849886
-0.0005310566578
-0.0005838928147
-0.0004663410948
-0.0001431582901
0.0004249423645
0.001258095956
0.002332148701
0.003559490485
0.004785404953
0.005809236037
0.006432308343
0.006522422954
0.006068190356
0.005183620188
0.004054402832
0.003017681837
0.001736487803
0.0006503660211
-0.0002168988769
-0.0007142398872
-0.001023990966
-0.001211648674
-0.00126241073
-0.001122411703
-0.000722920564
-9.162533828e-06
0.001026784711
0.002317327885
0.003704845576
0.004956104966
0.005810653797
0.006058668429
0.005619669076
0.004568149997
0.003089683279
0.001654592701
0.001116295861
-0.00014859818
-0.001161228936
-0.001776145571
-0.002232353776
-0.002612336773
-0.002892291623
-0.002993330475
-0.002809336043
-0.002240195148
-0.001232430712
0.0001808914503
0.001848310222
0.003501070349
0.004794495448
0.005399004984
0.005114415924
0.003937326684
0.002050286733
0.0001185959556
-0.0003411947569
-0.001752381366
-0.002903358886
-0.003663153435
-0.004317691644
-0.004960196427
-0.005553641166
-0.005989197913
-0.006115238353
-0.00577228726
-0.004839794058
-0.003292092715
-0.001246976557
0.001003137132
0.003014299789
0.004287015114
0.004424021535
0.003265402774
0.0009510864735
-0.001588305686
-0.002773067927
-0.004291813116
-0.005570024936
-0.006501342391
-0.0074101948
-0.008397576835
-0.009412757634
-0.01031523891
-0.01090144383
-0.01093767509
-0.01021006905
-0.008592990164
-0.006127594223
-0.00309246496
-2.477301089e-05
0.002358773729
0.003358776638
0.002521955364
-0.0001586106676
-0.003417767206
-0.006262772062
-0.00784567564
-0.009234349709
-0.0103571868
-0.01157139773
-0.01298739576
-0.01454520094
-0.016075677
-0.01732108336
-0.01796122161
-0.01766122026
-0.0161491801
-0.01332500628
-0.009384029833
-0.00491080185
-0.0008584521448
0.001654460634
0.001675210881
-0.001158114349
-0.005213599037
-0.01083041653
-0.01242981797
-0.0138994036
-0.01521138363
-0.01675588514
-0.01866080111
-0.02086691149
-0.023184859
-0.02530664107
-0.02682039163
-0.02724924832
-0.02613079762
-0.02315319653
-0.01832664066
-0.01218207337
-0.005863389111
-0.0009942772481
0.0007131482158
-0.001804924297
-0.006624550488
-0.01643294881
-0.0179957789
-0.01949001446
-0.02093935117
-0.02277902287
-0.02517155336
-0.02807371142
-0.03128832112
-0.03446644696
-0.03710850761
-0.03858847228
-0.03822364546
-0.03543734118
-0.02993550923
-0.02204589514
-0.01296214998
-0.004800438864
-0.0002826983672
-0.001656058872
-0.006972543318
-0.02298349212
-0.02444609239
-0.0258589365
-0.02730603371
-0.02930295374
-0.0320767376
-0.03561871001
-0.03973602712
-0.04404897652
-0.04798023986
-0.05076501353
-0.05150763311
-0.04929395006
-0.04348045666
-0.03401742777
-0.02191527855
-0.009610423351
-0.000962349777
6.505324791e-05
-0.005057195674
-0.03040134445
-0.03167215654
-0.03280932068
-0.03397781017
-0.03584881699
-0.03875932733
-0.04275210496
-0.04764292573
-0.0530239024
-0.0582469517
-0.06241984294
-0.06444235247
-0.06311238049
-0.05736586118
-0.0466633363
-0.0315772114
-0.01453142423
-0.0004056632837
0.00470249151
0.001122860752
-0.03871439315
-0.03961980044
-0.0401281043
-0.04054582392
-0.04183423652
-0.04449595349
-0.04862866414
-0.05404234626
-0.06028552537
-0.06663181682
-0.07206755383
-0.07531106119
-0.0748972785
-0.06937674547
-0.05768582957
-0.03977296248
-0.01764255804
0.003229824584
0.01452144948
0.01472688662
-0.0482622987
-0.04839208455
-0.04762026463
-0.0465503786
-0.04662949161
-0.04856046898
-0.05246186846
-0.05809179495
-0.06491379244
-0.07209301932
-0.07848004416
-0.08261692094
-0.08280084538
-0.07724940499
-0.06442412949
-0.04360454832
-0.01604077742
0.01286761631
0.03297202359
0.04029196472
-0.06004336572
-0.05841629825
-0.05515229005
-0.05151735816
-0.04964207306
-0.05035748628
-0.05369338832
-0.05926829475
-0.06639309872
-0.07407364485
-0.08098913104
-0.08548514261
-0.08561906906
-0.0792996343
-0.0645758162
-0.04012699686
-0.006307479237
0.0322652061
0.06446440758
0.08325975171
-0.076304756
-0.07075932135
-0.06269367145
-0.0550012928
-0.05041430058
-0.04954333007
-0.05210947175
-0.05746444643
-0.06468357005
-0.07255635674
-0.07955108362
-0.08378593416
-0.08304970877
-0.07490813999
-0.05697314108
-0.02733566669
0.01456957732
0.0654904878
0.1143856249
0.1501854213
-0.1042028811
-0.08796698774
-0.07000303889
-0.05628041203
-0.0483807302
-0.0457940962
-0.04761126633
-0.05276347203
-0.06000419575
-0.06787061502
-0.07461349422
-0.07812446747
-0.07591621188
-0.06514932494
-0.04283970621
-0.006172425213
0.0467921615
0.1153537151
0.1915038846
0.2583129027
-0.1760000935
-0.1149091525
-0.07361610839
-0.05188575653
-0.04117638036
-0.0375784301
-0.03930187504
-0.04476773817
-0.05236271487
-0.06041184745
-0.06702932559
-0.06996577767
-0.06654357378
-0.05358792606
-0.02737357446
0.01643528572
0.08277224782
0.1774163779
0.3054613051
0.4527145551
-0.3558708995
-0.1552727957
-0.07043924994
-0.04277908978
-0.03134597007
-0.02760474946
-0.0297954547
-0.03599217713
-0.04424986856
-0.05276550997
-0.05962398651
-0.06256428734
-0.05885950902
-0.04518083304
-0.01723890295
0.03083381091
0.108454058
0.2333910965
0.4348367919
0.7359009041
)


// ************************************************************************* //
