/*--------------------------------*- C++ -*----------------------------------*\
  =========                 |
  \\      /  F ield         | OpenFOAM: The Open Source CFD Toolbox
   \\    /   O peration     | Website:  https://openfoam.org
    \\  /    A nd           | Version:  13
     \\/     M anipulation  |
\*---------------------------------------------------------------------------*/
FoamFile
{
    format      ascii;
    class       surfaceScalarField;
    location    "50";
    object      phi_0;
}
// * * * * * * * * * * * * * * * * * * * * * * * * * * * * * * * * * * * * * //

dimensions      [0 3 -1 0 0 0 0];

internalField   nonuniform List<scalar> 
760
(
-1.321872842e-05
1.321867763e-05
-7.201772947e-05
5.879900579e-05
-0.0001620727116
9.005503633e-05
-0.0002652228361
0.0001031502325
-0.0003682425037
0.0001030196039
-0.000461504435
9.326164332e-05
-0.0005377502148
7.624550729e-05
-0.0005912423702
5.349219552e-05
-0.0006175094781
2.626750741e-05
-0.0006135893282
-3.919655249e-06
-0.000578459878
-3.51291879e-05
-0.0005138426585
-6.461728183e-05
-0.0004246594658
-8.918347629e-05
-0.0003192818433
-0.0001053779071
-0.0002092254998
-0.0001100564616
-0.0001081386155
-0.000101086836
-2.992491838e-05
-7.821361175e-05
1.41494687e-05
-4.407439268e-05
2.190962961e-05
-7.760287911e-06
2.190950694e-05
-6.870327663e-05
8.192196764e-05
-0.0002457755163
0.0002358711646
-0.0004934733479
0.0003377526705
-0.0007722780955
0.0003819550225
-0.001050409581
0.0003811514721
-0.001303006223
0.0003458586969
-0.001510604303
0.0002838435976
-0.001657872462
0.0002007598505
-0.001733200165
0.0001015945104
-0.001729305982
-7.814281358e-06
-0.001643831562
-0.0001206035983
-0.001481414029
-0.0002270344843
-0.00125438176
-0.0003162153911
-0.0009832948015
-0.00037646473
-0.0006961416084
-0.0003972097447
-0.0004257314705
-0.0003714971211
-0.0002049932225
-0.0002989519242
-5.981220946e-05
-0.0001892553964
-4.920558921e-07
-6.708040051e-05
2.141731376e-05
-0.0001229341782
0.0002048561879
-0.0004149722462
0.0005279093683
-0.0008086682192
0.0007314484801
-0.001247165389
0.0008204518661
-0.001684661956
0.0008186478547
-0.002084430757
0.0007456276672
-0.002416966146
0.000616379423
-0.00265857674
0.0004423708453
-0.002790992102
0.0002340099942
-0.002802414099
3.60755781e-06
-0.002687902624
-0.0002351152783
-0.002452962042
-0.0004619752394
-0.002114172083
-0.0006550053972
-0.001700374513
-0.0007902622568
-0.001251822527
-0.0008457616667
-0.0008167447641
-0.0008065748127
-0.0004446232721
-0.0006710733142
-0.0001762319671
-0.0004576465837
-3.221212496e-05
-0.0002111002324
-1.079489049e-05
-0.0001720784412
0.0003769345519
-0.0005725607473
0.0009283919427
-0.001105967743
0.001264855692
-0.001698036499
0.001412520575
-0.002290597313
0.001411208366
-0.002837254869
0.00129228488
-0.003300217849
0.001079342262
-0.003648292617
0.0007904457388
-0.00385633947
0.0004420570901
-0.003905816579
5.308491902e-05
-0.003787748122
-0.0003531836867
-0.003504025286
-0.0007456981863
-0.003071272919
-0.001087757913
-0.002522631249
-0.00133890398
-0.001907996468
-0.001460396355
-0.001290905694
-0.001423665392
-0.000740754207
-0.001221224603
-0.000320270795
-0.000878129882
-7.110216219e-05
-0.0004602688777
-8.189709211e-05
-0.0002170221839
0.0005939565661
-0.0007188333914
0.001430203087
-0.00138565587
0.001931678375
-0.002127123633
0.002153988601
-0.002874374308
0.002158459154
-0.00357319568
0.001991106136
-0.004178979862
0.001685126213
-0.004653585018
0.001265050753
-0.004964199273
0.0007526713909
-0.005084017927
0.0001729037268
-0.004995023755
-0.0004421777159
-0.004691189436
-0.001049532475
-0.004183518609
-0.001595428824
-0.003504390273
-0.002018032411
-0.002710450514
-0.002254336109
-0.001881578149
-0.002252537635
-0.001113233226
-0.001989569382
-0.0005008210214
-0.001490542028
-0.0001191420969
-0.0008419478237
-0.000201039203
-0.0002573667196
0.0008513233233
-0.0008513399773
0.002024176076
-0.001642296982
0.00272263526
-0.002526557626
0.003038249316
-0.003426901506
0.003058803204
-0.004283389162
0.002847593906
-0.005046215285
0.002447952313
-0.005671018756
0.001889854116
-0.006116752117
0.00119840468
-0.006345982536
0.0004021341427
-0.006327843885
-0.0004603163166
-0.006042476704
-0.001334899628
-0.00548832417
-0.002149581407
-0.004689982425
-0.002816374258
-0.003705727964
-0.003238590649
-0.002631183618
-0.00332708199
-0.001594227045
-0.003026525925
-0.0007363872412
-0.002348381835
-0.0001821206462
-0.001396214433
-0.0003831598549
-0.0002911840834
0.0011425076
-0.0009641253144
0.002697117271
-0.001864163958
0.003622673755
-0.002878145957
0.004052231201
-0.003923464986
0.004104122218
-0.004937002046
0.003861131032
-0.005865889344
0.003376839683
-0.006661002629
0.002684967437
-0.007273440347
0.001810842413
-0.00765397397
0.0007826677667
-0.007755806354
-0.0003584839384
-0.007539789089
-0.001550916918
-0.006984028109
-0.002705342451
-0.006095814893
-0.003704587572
-0.004925704653
-0.00440870099
-0.003579480212
-0.004673306502
-0.00222038841
-0.004385617769
-0.001050845745
-0.003517924533
-0.0002684677977
-0.002178592387
-0.0006516276541
-0.0003159656147
0.00145847325
-0.00104873763
0.003429889447
-0.002034531855
0.004608468013
-0.003154904031
0.005172603319
-0.004325133478
0.005274351576
-0.005481849736
0.005017847227
-0.006571932672
0.004466922611
-0.007544121486
0.003657156295
-0.008343811709
0.002610532714
-0.008911130849
0.001349986982
-0.009182806656
-8.680809256e-05
-0.009097013216
-0.001636710366
-0.00860458473
-0.003197770982
-0.007684199521
-0.004624972844
-0.00636406887
-0.005728831704
-0.004746043753
-0.006291331671
-0.00302288247
-0.006108779091
-0.001469581414
-0.005071225615
-0.0003882445649
-0.003259929237
-0.001039872219
-0.0003291956772
0.001787668805
-0.001096443092
0.004197136946
-0.002135079731
0.005647104757
-0.00332536848
0.006362892125
-0.004583651756
0.006532634827
-0.005849373589
0.006283568972
-0.0070725753
0.005690124236
-0.008203825167
0.004788406133
-0.009187258734
0.003593966332
-0.009956894006
0.002119622357
-0.01043606978
0.0003923677778
-0.01054225006
-0.001530530022
-0.01019503533
-0.003544985691
-0.009334089532
-0.00548591864
-0.007946629354
-0.007116291888
-0.006105927041
-0.008132033988
-0.004012930419
-0.008201775715
-0.002014593068
-0.007069562966
-0.0005528022393
-0.00472172006
-0.001592674456
-0.0003297929017
0.002117461634
-0.001101701915
0.0049690459
-0.002151423424
0.006696826299
-0.003361077963
0.007572546735
-0.004650845717
0.007822402612
-0.005965957064
0.007598680273
-0.007263379675
0.006987546753
-0.008500566291
0.006025592674
-0.009627012148
0.004720412184
-0.01057860306
0.003071213335
-0.01127459556
0.001088360394
-0.01161814903
-0.001186976446
-0.01150162933
-0.003661505317
-0.01082052641
-0.006167021504
-0.009503001628
-0.008433816639
-0.007560609046
-0.01007442654
-0.005160873435
-0.0106015113
-0.002696115644
-0.009534320738
-0.0007741503555
-0.006643685338
-0.002366824807
-0.0003199349211
0.00243739659
-0.001066686754
0.005715797653
-0.002080423968
0.007710563485
-0.00324681465
0.008738937446
-0.004492308016
0.009067896009
-0.005770873429
0.008877245666
-0.0070503163
0.008266989555
-0.008300542378
0.007275818674
-0.009484302329
0.005904172091
-0.01054996282
0.004136873842
-0.0114256209
0.001964018528
-0.01201417236
-0.0005984249047
-0.01219379473
-0.003481882873
-0.01182096896
-0.006539847218
-0.01075537875
-0.009499406805
-0.008913750736
-0.01191605453
-0.006370857906
-0.01314440411
-0.00349896523
-0.01240621339
-0.001063151399
-0.009079499156
-0.003429976198
-0.000307409411
0.002744806042
-0.00100658747
0.006414975695
-0.001938354797
0.008642330804
-0.00299189892
0.009792481593
-0.004102813365
0.01017881048
-0.005237448875
0.01001188117
-0.006378627928
0.009408168564
-0.007514083746
0.008411274428
-0.008627331727
0.007017420012
-0.009689844134
0.00519938621
-0.0106531423
0.002927316681
-0.01143756774
0.0001860005523
-0.0119294561
-0.002989994498
-0.01196499039
-0.006504312896
-0.01134373894
-0.01012065824
-0.009868967804
-0.01339082566
-0.007460114274
-0.01555325764
-0.004363834589
-0.01550249307
-0.001425535646
-0.01201779809
-0.004855511838
-0.0003089282751
0.003053734292
-0.0009555674307
0.007061614871
-0.00176849001
0.009455253426
-0.002639390481
0.01066338212
-0.003518261922
0.01105768197
-0.004389722478
0.01088334174
-0.005256719074
0.01027516514
-0.006129514404
0.009284069713
-0.007017706998
0.007905612545
-0.007923326555
0.006105005699
-0.008832213144
0.003836203208
-0.00970421443
0.001058001793
-0.01045072625
-0.002243482706
-0.01092411996
-0.006030919205
-0.01089502841
-0.01014974981
-0.01006488809
-0.01422096599
-0.008157305511
-0.01746084023
-0.005167631656
-0.01849216693
-0.001854349004
-0.01533108074
-0.006709860841
-0.0003552700892
0.003409004318
-0.0009733331975
0.007679677979
-0.00164605742
0.01012797771
-0.002268710325
0.01128603511
-0.002816839912
0.01160581162
-0.003303693491
0.01137019535
-0.003759409882
0.01073088154
-0.004220924559
0.009745584375
-0.004726146737
0.00841083468
-0.005309762524
0.006688621423
-0.005996656471
0.004523097087
-0.006791798114
0.001853143375
-0.007660585437
-0.001374695431
-0.008503029244
-0.005188475431
-0.009113178071
-0.009539601003
-0.009142508019
-0.01419163605
-0.008128400638
-0.01847494762
-0.005711156569
-0.02090941101
-0.002318284786
-0.01872395253
-0.009028145631
-0.0005003770477
0.003909381313
-0.001151296516
0.008330597406
-0.001674821023
0.01065150226
-0.00198164027
0.01159285441
-0.002095672347
0.01171984373
-0.002075735511
0.01135025854
-0.001988476997
0.01064362305
-0.001901151087
0.009658258479
-0.00187892689
0.008388610481
-0.001985970877
0.006795665391
-0.002282466723
0.004819592903
-0.002818755514
0.002389432137
-0.003622151982
-0.0005712989887
-0.004668842682
-0.00414178475
-0.005834634777
-0.008373808923
-0.006807663588
-0.01321860726
-0.007016668744
-0.01826594248
-0.005716400991
-0.02220967877
-0.00273956708
-0.02170078645
-0.01176771272
-0.0008308853723
0.004740266651
-0.001604832874
0.009104544843
-0.001950979367
0.01099764874
-0.001839382754
0.0114812578
-0.001385434759
0.01126589574
-0.0007181315717
0.01068295537
4.82134563e-05
0.00987727805
0.0008164049667
0.008890067011
0.001495360935
0.007709654552
0.001998424478
0.006292601878
0.002238517854
0.004579499546
0.002128355212
0.002499594793
0.001583160352
-2.610411989e-05
0.0005450317723
-0.003103656166
-0.000984314404
-0.006844462746
-0.002828401634
-0.01137452003
-0.004459125877
-0.01663521824
-0.004810489472
-0.02185831518
-0.002944290901
-0.02356698503
-0.01471200362
-0.001465682512
0.006205949139
-0.002379876633
0.01001873891
-0.002373444876
0.01099121694
-0.001603541864
0.01071135475
-0.0003496262702
0.01001198013
0.001163642755
0.009169686354
0.002771842289
0.008269078563
0.004349534446
0.007312374917
0.00579162408
0.006267564979
0.006998015317
0.005086210691
0.007865493706
0.003712021196
0.008282285725
0.002082802802
0.008123822632
0.0001323589936
0.007264497125
-0.002244330644
0.005585213368
-0.005165178979
0.003073873275
-0.008863179932
7.897207974e-05
-0.01364031705
-0.002445747283
-0.01933359582
-0.002601077989
-0.02341165432
-0.01731308161
-0.002365503976
0.008571453129
-0.002963808628
0.01061704354
-0.001922814037
0.009950222277
8.111541147e-05
0.008707425294
0.002534887311
0.007558208218
0.005140256002
0.006564317672
0.007719753947
0.005689580649
0.01015462196
0.004877506949
0.01234957397
0.004072612999
0.01421200278
0.003223781915
0.01564054066
0.002283483327
0.0165175894
0.001205754081
0.01669710004
-4.715164126e-05
0.01602712657
-0.00157435716
0.01430509031
-0.003443142716
0.01133283096
-0.005890920577
0.007055613858
-0.009363099944
0.002201623718
-0.01447960568
-0.001027320519
-0.02018271009
-0.01834040214
-0.002150342857
0.01072179609
-7.199445143e-05
0.008538695485
0.003741898432
0.006136329054
0.00771977284
0.004729550828
0.01156187106
0.003716109972
0.01514101066
0.002985178057
0.01839885633
0.002431734961
0.02130155574
0.001974807514
0.02381243396
0.001561734765
0.0258797351
0.001156480761
0.02743056926
0.0007326491563
0.02836472843
0.0002715949059
0.02857561767
-0.0002580408732
0.02788766542
-0.0008864049026
0.02609934141
-0.001654818705
0.02290826576
-0.002699844915
0.01790696691
-0.004361801088
0.01076690819
-0.007339546964
0.002912180387
-0.01232798228
-0.01542822175
0.01072179613
0.01926049172
0.0253968208
0.03012637159
0.03384248152
0.03682765954
0.03925939446
0.04123420194
0.04279593668
0.04395241742
0.04468506656
0.04495666146
0.04469862059
0.04381221569
0.04215739699
0.03945755208
0.035095751
0.02775620403
0.01542822175
)
;

boundaryField
{
    movingWall
    {
        type            calculated;
        value           uniform 0;
    }
    fixedWalls
    {
        type            calculated;
        value           uniform 0;
    }
    frontAndBack
    {
        type            empty;
    }
}


// ************************************************************************* //
