/*--------------------------------*- C++ -*----------------------------------*\
  =========                 |
  \\      /  F ield         | OpenFOAM: The Open Source CFD Toolbox
   \\    /   O peration     | Website:  https://openfoam.org
    \\  /    A nd           | Version:  13
     \\/     M anipulation  |
\*---------------------------------------------------------------------------*/
FoamFile
{
    format      ascii;
    class       vectorField;
    location    "50";
    object      U_all;
}
// * * * * * * * * * * * * * * * * * * * * * * * * * * * * * * * * * * * * * //


400
(
(0.0001831757583 -0.0001883154893 0)
(-0.0001377032542 2.905898468e-05 0)
(-0.001535219214 0.0002681141094 0)
(-0.0037921041 0.0004195103536 0)
(-0.006558915002 0.0004995726943 0)
(-0.009533501648 0.0005302251706 0)
(-0.01246514215 0.0005212367079 0)
(-0.01511938851 0.0004714812247 0)
(-0.01725469562 0.0003740947908 0)
(-0.01862319371 0.0002236156119 0)
(-0.01899824565 2.326950559e-05 0)
(-0.01822420473 -0.0002094671146 0)
(-0.01627610743 -0.0004404533157 0)
(-0.01331068523 -0.0006228966177 0)
(-0.009686455455 -0.0007079815739 0)
(-0.00593250445 -0.0006606909602 0)
(-0.002657428107 -0.0004749570966 0)
(-0.0004042560992 -0.0001815833681 0)
(0.0005432030699 0.0001381141866 0)
(0.0003106614781 0.0003036584657 0)
(-4.679363402e-05 0.0001342054771 0)
(-0.002084041473 0.001934078318 0)
(-0.006446631611 0.003766418684 0)
(-0.01261002882 0.005033426452 0)
(-0.01981325815 0.005700606628 0)
(-0.02738359342 0.005844662441 0)
(-0.03471421069 0.005516160714 0)
(-0.0412209615 0.004721261824 0)
(-0.04632191605 0.00344997256 0)
(-0.04945680656 0.001721825189 0)
(-0.05015134431 -0.0003698456082 0)
(-0.04811508577 -0.002629510303 0)
(-0.04335002238 -0.004758651699 0)
(-0.03623743816 -0.006392760912 0)
(-0.02756578503 -0.007178059894 0)
(-0.01846565671 -0.006877185489 0)
(-0.01023068488 -0.005475991291 0)
(-0.004032893456 -0.003258499646 0)
(-0.0005739661393 -0.0008594059696 0)
(0.0002227842127 0.0005924768757 0)
(-0.0003535641071 0.001718320569 0)
(-0.004496882595 0.006477080163 0)
(-0.01189694497 0.01069443532 0)
(-0.02164901091 0.01354637166 0)
(-0.03265165616 0.0149838457 0)
(-0.04399035698 0.01513473211 0)
(-0.05482406687 0.01408821368 0)
(-0.06433353649 0.011866317 0)
(-0.07171382583 0.008482311235 0)
(-0.07621069165 0.004031577616 0)
(-0.07720324517 -0.001223761463 0)
(-0.0743198588 -0.006804863402 0)
(-0.06756381768 -0.01202277866 0)
(-0.05741811265 -0.0160579469 0)
(-0.04489131427 -0.01811905034 0)
(-0.03146086287 -0.01766555821 0)
(-0.01887306503 -0.01464391033 0)
(-0.008797942704 -0.009660732645 0)
(-0.002418516639 -0.004055770377 0)
(3.613049535e-05 2.906213164e-05 0)
(-0.000631706577 0.004603443697 0)
(-0.006828166593 0.01370302234 0)
(-0.01714223179 0.02096707048 0)
(-0.03022137986 0.02568582496 0)
(-0.04462143287 0.02792459998 0)
(-0.05924644847 0.02790290998 0)
(-0.07310885978 0.02576004659 0)
(-0.08524788316 0.02154211604 0)
(-0.09472148659 0.01530141628 0)
(-0.1006451631 0.007235463748 0)
(-0.1022754375 -0.002188268613 0)
(-0.09912751797 -0.0121596764 0)
(-0.09111145998 -0.02153314912 0)
(-0.07866581022 -0.02894044406 0)
(-0.06285417461 -0.03302656314 0)
(-0.04536866943 -0.03280309035 0)
(-0.02836577803 -0.02805597033 0)
(-0.01409842886 -0.01967310651 0)
(-0.004435163546 -0.009754802822 0)
(-0.0001244127315 -0.001511781416 0)
(-0.0008714122201 0.008673276372 0)
(-0.00891350474 0.02338324679 0)
(-0.02187230856 0.03425167857 0)
(-0.03795540929 0.04100946872 0)
(-0.05539758019 0.04401066148 0)
(-0.07296683544 0.04364280955 0)
(-0.08959589614 0.04012259373 0)
(-0.104255687 0.03352652016 0)
(-0.115929375 0.02394267417 0)
(-0.1236356981 0.01165980656 0)
(-0.1264969762 -0.002666530843 0)
(-0.123847311 -0.01790976547 0)
(-0.1153793062 -0.03245911973 0)
(-0.1013228019 -0.04433549873 0)
(-0.08262831843 -0.05147777599 0)
(-0.06108805368 -0.05222766838 0)
(-0.03927467436 -0.04596202751 0)
(-0.02019304115 -0.03367849371 0)
(-0.00668930532 -0.01823801777 0)
(-0.0002709016963 -0.004088407868 0)
(-0.001068834554 0.01376637797 0)
(-0.01067046182 0.03521415815 0)
(-0.02589289466 0.05019365863 0)
(-0.04456372722 0.05914965116 0)
(-0.06464964208 0.06289923908 0)
(-0.08483088679 0.06209010602 0)
(-0.1040187454 0.05705387881 0)
(-0.1211781505 0.04790022979 0)
(-0.1352698162 0.03472939116 0)
(-0.1452421624 0.01787338257 0)
(-0.1500689557 -0.00189148561 0)
(-0.1488366808 -0.02319175295 0)
(-0.1408967736 -0.04399307123 0)
(-0.1260950121 -0.06166900824 0)
(-0.1050665557 -0.07328889357 0)
(-0.07953051291 -0.07621227663 0)
(-0.05242319501 -0.06899927973 0)
(-0.02766525056 -0.05241767505 0)
(-0.009462368394 -0.03003339572 0)
(-0.0004463052925 -0.007851339812 0)
(-0.001216256245 0.01968867909 0)
(-0.0120235897 0.04880942778 0)
(-0.02902457076 0.06834169209 0)
(-0.04975287593 0.07966053308 0)
(-0.07197807789 0.08420056 0)
(-0.09434359377 0.08296295835 0)
(-0.1157937212 0.07643669149 0)
(-0.1353464938 0.06476481862 0)
(-0.1519955051 0.04802106831 0)
(-0.1646588723 0.02650407772 0)
(-0.1721730416 0.001001809343 0)
(-0.1733470995 -0.0269896221 0)
(-0.1671021878 -0.05511229368 0)
(-0.1527343367 -0.0801113128 0)
(-0.1303216251 -0.09804522816 0)
(-0.1012297855 -0.1049213062 0)
(-0.06855160075 -0.09789669003 0)
(-0.03717618546 -0.07690657393 0)
(-0.01311559274 -0.0459922746 0)
(-0.0007021571182 -0.01313031104 0)
(-0.001304939666 0.02620698632 0)
(-0.01290072151 0.06369440028 0)
(-0.0310940211 0.0881263522 0)
(-0.0532178054 0.1019614692 0)
(-0.07691925221 0.1073784979 0)
(-0.1008530006 0.1058209599 0)
(-0.1240468498 0.09798184305 0)
(-0.1456314425 0.08404088832 0)
(-0.1646996474 0.06400307589 0)
(-0.1802074487 0.03804363917 0)
(-0.190915618 0.006826126541 0)
(-0.1953914061 -0.02820138942 0)
(-0.1921075677 -0.06453037894 0)
(-0.179697649 -0.09839505124 0)
(-0.1574314049 -0.1247993178 0)
(-0.1259280714 -0.1380546594 0)
(-0.08799993252 -0.1331784749 0)
(-0.04929957882 -0.1082948496 0)
(-0.01804373083 -0.06728575852 0)
(-0.001101749808 -0.02045926271 0)
(-0.001330172988 0.03305335312 0)
(-0.01325513929 0.07931554909 0)
(-0.03197060829 0.1088605281 0)
(-0.05469350775 0.125312343 0)
(-0.07901549554 0.131690974 0)
(-0.1036430983 0.1299666043 0)
(-0.1277328645 0.1210905768 0)
(-0.1505880491 0.105294658 0)
(-0.1714798828 0.08248493356 0)
(-0.1895028229 0.05263119427 0)
(-0.2034610928 0.0161328101 0)
(-0.2118023988 -0.02580899718 0)
(-0.2126407185 -0.07078357027 0)
(-0.2039391039 -0.1147678219 0)
(-0.1839674622 -0.151853112 0)
(-0.1521505731 -0.1744763254 0)
(-0.1103400454 -0.1747511253 0)
(-0.06433124189 -0.1475845303 0)
(-0.02464509957 -0.09532537127 0)
(-0.001728317711 -0.0305893925 0)
(-0.001298696515 0.03994811723 0)
(-0.01310420599 0.09507403472 0)
(-0.03163418163 0.1297604848 0)
(-0.05405098941 0.1488091734 0)
(-0.07794271792 0.1561550092 0)
(-0.102102171 0.1543782697 0)
(-0.1258560977 0.1447544969 0)
(-0.1487391284 0.1276032286 0)
(-0.1702866263 0.1027291644 0)
(-0.1898549112 0.06984616378 0)
(-0.2064587795 0.02897566738 0)
(-0.2186301012 -0.01912671809 0)
(-0.2243374987 -0.07244907803 0)
(-0.2210222057 -0.1271081687 0)
(-0.2059168291 -0.1766808184 0)
(-0.1768766707 -0.2118827379 0)
(-0.1339668351 -0.2213787352 0)
(-0.08201208764 -0.1951556003 0)
(-0.03326583687 -0.1315720625 0)
(-0.002695828466 -0.04449633483 0)
(-0.001238578761 0.04664876912 0)
(-0.01258094846 0.1103956174 0)
(-0.03026412844 0.1500000505 0)
(-0.05142100701 0.171412471 0)
(-0.07367331671 0.1795521555 0)
(-0.09593948916 0.1776977243 0)
(-0.1177624223 0.1675262514 0)
(-0.1389652714 0.1495029944 0)
(-0.1594284946 0.1233646825 0)
(-0.178892941 0.08856800555 0)
(-0.1967665064 0.04469903171 0)
(-0.2119158054 -0.00808633108 0)
(-0.2224810571 -0.06849486502 0)
(-0.2257062779 -0.1332614293 0)
(-0.2179944874 -0.1961170485 0)
(-0.1955035304 -0.2466816896 0)
(-0.1557659355 -0.2701814075 0)
(-0.1011534388 -0.2501031349 0)
(-0.04407225905 -0.1771700704 0)
(-0.004158706198 -0.06336841718 0)
(-0.00121259654 0.05303253285 0)
(-0.01199822119 0.1248445348 0)
(-0.02833891627 0.1688018072 0)
(-0.04732009227 0.1920111235 0)
(-0.06663213279 0.2004801661 0)
(-0.0853890413 0.1982847155 0)
(-0.1034183145 0.1875831225 0)
(-0.1208910877 0.1690553019 0)
(-0.1380965333 0.1424323576 0)
(-0.155250237 0.1069632035 0)
(-0.1723003426 0.06181202184 0)
(-0.1887011999 0.006466128676 0)
(-0.2031003309 -0.05871453607 0)
(-0.2130001585 -0.1315921222 0)
(-0.21448652 -0.206896784 0)
(-0.2022986308 -0.2742781758 0)
(-0.1710753822 -0.3164046443 0)
(-0.1192565867 -0.3095072734 0)
(-0.0568051645 -0.2323354939 0)
(-0.006314204686 -0.08854583974 0)
(-0.001339706314 0.05922538706 0)
(-0.01193217389 0.1382825552 0)
(-0.02673611345 0.1855524853 0)
(-0.04274380404 0.2095030404 0)
(-0.05778261071 0.2174321844 0)
(-0.07130623105 0.2143223906 0)
(-0.08354451822 0.2028717703 0)
(-0.09508706236 0.1840268566 0)
(-0.106671304 0.1575791103 0)
(-0.1190240077 0.122651922 0)
(-0.1327003309 0.07807174705 0)
(-0.1478726116 0.02270660269 0)
(-0.1640021112 -0.04407590934 0)
(-0.1793689956 -0.1216262876 0)
(-0.19045293 -0.206502913 0)
(-0.1913504167 -0.2898712874 0)
(-0.1741221534 -0.3537361787 0)
(-0.1323266187 -0.3679168365 0)
(-0.07039768128 -0.295470798 0)
(-0.009383637049 -0.1213392811 0)
(-0.001835607095 0.06580043739 0)
(-0.01334072751 0.1510651649 0)
(-0.02681637215 0.1999042348 0)
(-0.03916771658 0.2228434805 0)
(-0.04854327489 0.2288524333 0)
(-0.05501855598 0.2239189508 0)
(-0.05941994413 0.2112728632 0)
(-0.06284356152 0.1921186765 0)
(-0.06648807545 0.166338339 0)
(-0.07156264969 0.1330092993 0)
(-0.07919353425 0.09074932587 0)
(-0.09028028274 0.03796810724 0)
(-0.1052336573 -0.02684087463 0)
(-0.123505295 -0.1045459704 0)
(-0.1427675553 -0.1940829478 0)
(-0.1576664949 -0.2896407239 0)
(-0.1588362431 -0.3752952662 0)
(-0.1350280986 -0.4174142419 0)
(-0.08249803636 -0.3621302593 0)
(-0.01351976114 -0.1625676369 0)
(-0.003072859524 0.07407072323 0)
(-0.0177117431 0.1642419564 0)
(-0.03040626209 0.2117768357 0)
(-0.03827921882 0.2309670298 0)
(-0.04028699487 0.233078185 0)
(-0.03763503747 0.2251116877 0)
(-0.03202808352 0.2106787817 0)
(-0.02516704416 0.1911207912 0)
(-0.01869759195 0.166364757 0)
(-0.0142296041 0.1354797245 0)
(-0.01334234109 0.09700060403 0)
(-0.01754356761 0.04910253956 0)
(-0.02813480487 -0.01027650704 0)
(-0.04588105299 -0.08320477988 0)
(-0.07024758388 -0.1709954324 0)
(-0.09776134754 -0.2718943229 0)
(-0.1195582099 -0.3750763151 0)
(-0.1210161594 -0.4485114345 0)
(-0.08896565194 -0.4243605863 0)
(-0.0184962944 -0.2117533728 0)
(-0.005569294804 0.08658634402 0)
(-0.02705117352 0.179650009 0)
(-0.03924393606 0.2209970356 0)
(-0.04075120824 0.2323264412 0)
(-0.03257865665 0.2279576863 0)
(-0.01791286444 0.2155992327 0)
(0.0003348696416 0.1988329518 0)
(0.01979997254 0.1788542099 0)
(0.03845488113 0.1554920221 0)
(0.05441910524 0.1277845856 0)
(0.06582972733 0.09427592098 0)
(0.07076805825 0.05313077988 0)
(0.06725200107 0.0021329739 0)
(0.05336041606 -0.06138587944 0)
(0.02769545223 -0.1404743407 0)
(-0.009128883974 -0.2374982602 0)
(-0.05105917065 -0.3491738051 0)
(-0.08301874058 -0.4516016637 0)
(-0.08338120346 -0.4711713871 0)
(-0.02311090854 -0.2667630991 0)
(-0.009891391551 0.1087072884 0)
(-0.04292023817 0.1996229593 0)
(-0.05206649363 0.225839429 0)
(-0.04151284061 0.2234251717 0)
(-0.01747463096 0.2097331835 0)
(0.01377110368 0.191979878 0)
(0.04804222372 0.1728589208 0)
(0.08250374987 0.1529370171 0)
(0.1149894729 0.1317084895 0)
(0.1435971964 0.1081130461 0)
(0.1664256964 0.08076547864 0)
(0.1814007711 0.04800697317 0)
(0.1861545446 0.007833743011 0)
(0.1779864341 -0.04235503118 0)
(0.1539518015 -0.1062436325 0)
(0.1116766364 -0.189133686 0)
(0.05246697519 -0.2960084617 0)
(-0.01241109339 -0.4177532216 0)
(-0.05669759293 -0.4889715096 0)
(-0.02464856477 -0.3240612491 0)
(-0.01781337969 0.1516587718 0)
(-0.06127521086 0.2236353051 0)
(-0.05219371589 0.2177044508 0)
(-0.01420891498 0.1950230466 0)
(0.03565061429 0.1711744833 0)
(0.08892862858 0.1492018382 0)
(0.1416323625 0.1295002449 0)
(0.1914702215 0.1114789092 0)
(0.2368421798 0.09410183443 0)
(0.2763464114 0.07619085033 0)
(0.308451967 0.05651589847 0)
(0.3312915397 0.03375729034 0)
(0.342488616 0.006401361586 0)
(0.3390514801 -0.02753309183 0)
(0.3171771016 -0.07120609395 0)
(0.2722862648 -0.1305578083 0)
(0.2001851535 -0.216500952 0)
(0.1030349143 -0.3383580163 0)
(0.004387966339 -0.4567909949 0)
(-0.01595602742 -0.3693337763 0)
(-0.02422744127 0.2082570983 0)
(-0.03792078905 0.2303485858 0)
(0.03727735212 0.17653937 0)
(0.1250886101 0.1368824987 0)
(0.2059049994 0.1091058498 0)
(0.2781358124 0.08827037325 0)
(0.3424392849 0.07217466098 0)
(0.3990957256 0.05923018127 0)
(0.4481468995 0.04805730024 0)
(0.4893601162 0.03752511371 0)
(0.5220575497 0.02669684529 0)
(0.5450078478 0.01472703394 0)
(0.5563317403 0.0007443690551 0)
(0.5533813107 -0.01632196085 0)
(0.5323466689 -0.03831121896 0)
(0.4877674161 -0.06916511939 0)
(0.4111564949 -0.1191043699 0)
(0.2908987638 -0.2093503035 0)
(0.1331404545 -0.3382875219 0)
(0.03877913138 -0.3403672725 0)
(0.2418835813 0.1091298962 0)
(0.3134462626 0.09711278685 0)
(0.4443076365 0.05696546524 0)
(0.5496228599 0.0351081986 0)
(0.6240716918 0.02373993476 0)
(0.6796395391 0.0167105967 0)
(0.7235411845 0.01198024226 0)
(0.7588690194 0.008693133182 0)
(0.7871697335 0.006252695239 0)
(0.809239295 0.004228346616 0)
(0.8252560319 0.002326076568 0)
(0.8348515718 0.0003379279679 0)
(0.8371655215 -0.001912270651 0)
(0.8307811649 -0.004593065676 0)
(0.8133997132 -0.008029809587 0)
(0.7811316661 -0.01288409103 0)
(0.7256864659 -0.02122694969 0)
(0.6298598108 -0.03809012497 0)
(0.4592679879 -0.08554738925 0)
(0.3048945095 -0.125697383 0)
)


// ************************************************************************* //
