/*--------------------------------*- C++ -*----------------------------------*\
  =========                 |
  \\      /  F ield         | OpenFOAM: The Open Source CFD Toolbox
   \\    /   O peration     | Website:  https://openfoam.org
    \\  /    A nd           | Version:  13
     \\/     M anipulation  |
\*---------------------------------------------------------------------------*/
FoamFile
{
    format      ascii;
    class       vectorField;
    location    "50";
    object      U_all;
}
// * * * * * * * * * * * * * * * * * * * * * * * * * * * * * * * * * * * * * //


400
(
(1.100897543e-05 -3.782972688e-05 0)
(-0.0006660918789 0.0004130435279 -1.551466928e-23)
(-0.002185373303 0.0009203947132 0)
(-0.004047831478 0.001312781395 0)
(-0.005971866706 0.001535064315 6.845938696e-25)
(-0.007762782904 0.001569845157 4.150955006e-24)
(-0.009284547378 0.001423562193 -7.374453773e-24)
(-0.0104359453 0.001119725152 7.52965272e-24)
(-0.01113681751 0.0006960872405 -2.095322629e-25)
(-0.01132711184 0.0002030824333 -3.994550939e-24)
(-0.01097177024 -0.0003002312092 5.80351405e-24)
(-0.01007232452 -0.0007475170882 -5.929482657e-23)
(-0.008679877725 -0.001075565248 -6.552606871e-23)
(-0.006902852776 -0.001233046818 -7.78420076e-23)
(-0.004910739382 -0.001192639655 4.573521764e-24)
(-0.002927232966 -0.0009619204681 -4.137866957e-24)
(-0.00120529854 -0.0005912115839 -1.998713341e-22)
(-1.906630384e-05 -0.0001698834459 0)
(0.0005181561723 0.0001720845065 1.509379824e-25)
(0.0002227522281 0.0003059784093 -2.549978221e-24)
(-0.0002633609642 0.0008289726385 1.382842649e-25)
(-0.002703302519 0.003383843001 1.561266896e-23)
(-0.006907275768 0.005604503324 1.555615445e-25)
(-0.01195232099 0.007008210087 -8.496153254e-25)
(-0.01713504558 0.007553776976 1.162246722e-24)
(-0.02197535354 0.007294198073 1.307003736e-23)
(-0.02611075871 0.006321891561 1.38733215e-24)
(-0.02926564653 0.004754192158 -7.281406969e-24)
(-0.03122673235 0.002737153813 1.015220626e-23)
(-0.03184201422 0.0004524096524 4.509879766e-24)
(-0.03102761824 -0.001884141582 -6.31877772e-24)
(-0.02879316754 -0.004023028433 2.961706468e-24)
(-0.02527138259 -0.005708355569 3.895488069e-23)
(-0.0207319473 -0.006707411704 -1.954738951e-24)
(-0.01558962597 -0.006854142383 3.754418971e-24)
(-0.01038513463 -0.006097466417 -9.740781745e-23)
(-0.005730272303 -0.004546188916 9.637453908e-23)
(-0.002233365557 -0.002507421822 -3.960851903e-25)
(-0.0001817725038 -0.0005023748424 4.06074531e-25)
(8.343713767e-05 0.0006099242754 0)
(-0.0004188229887 0.002935081102 -2.910278428e-25)
(-0.00464787292 0.008804015246 1.701891204e-23)
(-0.01137195821 0.01324042411 -8.285297936e-24)
(-0.01932729125 0.01579204346 -2.075720571e-25)
(-0.02747411976 0.01653000485 2.03917874e-25)
(-0.0351177915 0.01564442072 6.790371221e-27)
(-0.04171344992 0.01335997679 -1.219845871e-24)
(-0.04683571713 0.00991976834 -4.550921047e-25)
(-0.05014988869 0.005602429147 -1.063038037e-23)
(-0.05141231953 0.0007444173635 0)
(-0.05047793407 -0.004241781084 0)
(-0.04733706464 -0.00888718585 2.6709687e-23)
(-0.04215928096 -0.0126817682 2.812980561e-23)
(-0.03531437583 -0.01513605198 -1.646137574e-24)
(-0.02738996391 -0.01586189757 4.845783354e-23)
(-0.01917005974 -0.01467334461 9.419091052e-23)
(-0.01156090707 -0.01169360662 3.975540827e-23)
(-0.005465410007 -0.007450745191 4.141310568e-25)
(-0.001451096813 -0.002936044947 1.074065338e-25)
(-9.072565522e-05 0.0002258753255 0)
(-0.0005024638997 0.006045352431 -4.248713341e-23)
(-0.006402740356 0.01637075819 -1.692115377e-23)
(-0.01553502307 0.02355933619 8.212142499e-24)
(-0.02627911915 0.02744162592 0)
(-0.037287468 0.0283210232 0)
(-0.04769037776 0.02658772908 0)
(-0.05679663476 0.02263120775 -4.464634848e-26)
(-0.06405384447 0.01683609552 -2.137125176e-24)
(-0.06901081786 0.009622183499 0)
(-0.07130827969 0.001491047713 1.635337672e-24)
(-0.07070853508 -0.006936506401 2.802697571e-25)
(-0.06713039481 -0.01493019028 -2.810545059e-25)
(-0.06069905832 -0.02166728261 0)
(-0.05180750883 -0.02631605838 4.133188539e-23)
(-0.0411499202 -0.02816070989 -4.68149866e-23)
(-0.0297197042 -0.02677372368 -2.761866155e-23)
(-0.01873716652 -0.02221530614 -3.960684009e-23)
(-0.009488026418 -0.01521922224 7.795930093e-25)
(-0.002976877854 -0.007298195132 9.7905204e-23)
(-0.0002318787352 -0.0008661690611 0)
(-0.0005316140475 0.01009501731 4.269373412e-23)
(-0.0079835944 0.02595220029 4.785558449e-25)
(-0.01939687619 0.03642883254 -4.676257858e-25)
(-0.03282382477 0.04185520919 0)
(-0.04664688999 0.04289485294 7.783122128e-25)
(-0.05985229802 0.04020074127 -7.675206311e-25)
(-0.07163291749 0.03434741886 3.672344533e-23)
(-0.08132751777 0.02585664366 1.848265842e-23)
(-0.08836601566 0.01527298554 6.238997407e-24)
(-0.0922546983 0.003246147811 -1.637242862e-24)
(-0.09260379873 -0.009407833372 0)
(-0.08917555528 -0.02167478209 4.37048586e-25)
(-0.0819597937 -0.03236745242 1.008965898e-23)
(-0.07126885729 -0.04021250261 -4.349215201e-23)
(-0.05782019185 -0.04402046384 1.932850634e-24)
(-0.0427858323 -0.0429482935 4.217124945e-23)
(-0.02775450376 -0.03683346883 -3.841547092e-25)
(-0.01455062197 -0.02652720928 0)
(-0.004859461101 -0.01408454497 5.436537905e-23)
(-0.0003641478195 -0.002846953841 -2.565093338e-22)
(-0.0005272207327 0.01499927649 9.841657874e-23)
(-0.009377925511 0.03739022559 -4.907877979e-25)
(-0.02288182982 0.05170223529 0)
(-0.03883043747 0.05894183653 0)
(-0.0553865694 0.06025574986 -8.732176087e-23)
(-0.07142876836 0.05661901242 -8.499141692e-23)
(-0.08606654428 0.04880168864 -4.067604875e-23)
(-0.09855086439 0.03743980609 -1.504395087e-23)
(-0.1081945362 0.02315984072 -5.369020412e-24)
(-0.1143444772 0.006709680042 -8.175050921e-24)
(-0.1164046235 -0.01093292165 6.601189797e-24)
(-0.1138937414 -0.02848945158 8.826840075e-24)
(-0.1065486993 -0.04437046431 -1.892318706e-23)
(-0.09446804273 -0.05675333924 4.608371673e-24)
(-0.07826857206 -0.06378298744 0)
(-0.059228957 -0.06393495409 -1.572805458e-23)
(-0.03933982016 -0.05653816226 -2.431145399e-26)
(-0.02114188801 -0.04235809085 0)
(-0.007318702357 -0.02398229428 -1.520662408e-22)
(-0.0005216162984 -0.005925545201 6.056300896e-22)
(-0.0004990811068 0.02064574552 -9.774608477e-23)
(-0.01052950885 0.05045438206 2.831996717e-22)
(-0.02582957519 0.06912512 1.526867718e-22)
(-0.04402138519 0.07849258404 3.619302433e-24)
(-0.06310739446 0.08029476942 -7.319362271e-23)
(-0.08190405367 0.07588043328 9.043601272e-23)
(-0.09947763986 0.0662169093 -3.590234096e-24)
(-0.1150227413 0.05201695149 -1.729179685e-24)
(-0.1277519218 0.03392358488 2.524174773e-24)
(-0.1368472634 0.01270233139 7.382681524e-24)
(-0.1414710545 -0.01058782425 -6.500932964e-24)
(-0.1408248196 -0.0344602454 -9.788277214e-24)
(-0.1342745981 -0.05692771954 -3.261728178e-23)
(-0.1215450258 -0.07553316495 -3.661604167e-23)
(-0.1029672681 -0.087542608 5.646187775e-25)
(-0.07976370136 -0.09039209816 0)
(-0.05426682634 -0.08244513826 0)
(-0.02987161008 -0.06397736921 -2.906088783e-24)
(-0.01066285166 -0.03798794782 2.970538547e-24)
(-0.000735093646 -0.01050089523 1.027873006e-22)
(-0.0004479162602 0.02687251338 0)
(-0.0113492321 0.06480757694 2.001982245e-22)
(-0.02801599655 0.08829617454 8.962048797e-23)
(-0.04799857411 0.1001234979 0)
(-0.06920602178 0.1027076597 1.569891436e-22)
(-0.09044373498 0.09781579099 0)
(-0.1107831722 0.08661103442 -1.428393358e-22)
(-0.1294093812 0.06983950622 6.515585812e-24)
(-0.1454771683 0.04808232298 0)
(-0.1580351854 0.02201755528 0)
(-0.1660133486 -0.007334441397 -1.374416851e-24)
(-0.168267158 -0.03838839997 -9.316840165e-25)
(-0.1637064719 -0.06883976205 1.491988294e-22)
(-0.1515208785 -0.09558276151 -4.704626823e-23)
(-0.131513458 -0.1148298697 -2.560999245e-24)
(-0.1045596099 -0.1225703445 1.534756241e-24)
(-0.07309350056 -0.1155517993 -1.558965918e-24)
(-0.04135021585 -0.09283115777 0)
(-0.01525230316 -0.05740767776 3.203826477e-24)
(-0.001044309096 -0.01714714535 -1.012917814e-21)
(-0.0003744671471 0.03346304721 0)
(-0.01175006153 0.07998919091 -1.128298376e-22)
(-0.02920707943 0.1086390978 -6.191167143e-22)
(-0.05031745023 0.1232234023 -3.755315632e-22)
(-0.07296317497 0.1269097069 0)
(-0.09598960385 0.121925568 4.119466719e-22)
(-0.118527352 0.1096348683 1.260929427e-22)
(-0.1398146472 0.09078246207 -5.581849501e-24)
(-0.1590221607 0.06581393372 5.554222345e-24)
(-0.1751461055 0.03520881147 0)
(-0.1869560025 -0.0001967482585 2.912135766e-23)
(-0.1930172679 -0.03889754589 4.695852212e-24)
(-0.191780994 -0.07843888889 -1.076813212e-22)
(-0.1817874462 -0.1151865421 8.004255454e-23)
(-0.1620570461 -0.144259951 -2.419755331e-22)
(-0.1327062023 -0.1598548672 0)
(-0.09577888322 -0.1563112924 0)
(-0.05601633149 -0.1302981113 0)
(-0.02147859168 -0.08381135295 0)
(-0.001500384589 -0.02665516369 5.572135189e-22)
(-0.000287390405 0.04016077827 0)
(-0.01169359703 0.09543611888 -3.493025355e-22)
(-0.02924438358 0.1294073671 8.932818244e-22)
(-0.05060947283 0.1469299208 3.617187663e-22)
(-0.07370082601 0.1519748709 0)
(-0.09745151145 0.1472757996 -3.862563926e-22)
(-0.1211069854 0.1344191983 -3.174436507e-23)
(-0.1440324821 0.114139335 3.333110376e-22)
(-0.165514328 0.08670006877 1.769477355e-22)
(-0.1846248565 0.05229123654 -4.060157247e-23)
(-0.2001325845 0.01141716215 1.656822028e-23)
(-0.2104622466 -0.0347142427 -8.265261884e-24)
(-0.2137208546 -0.0837656386 3.37186305e-22)
(-0.2078215513 -0.1318756383 0)
(-0.1908238549 -0.1732756177 2.420924361e-22)
(-0.161633575 -0.2002593435 5.774805586e-24)
(-0.12116627 -0.2040121746 -5.860925019e-24)
(-0.07384989858 -0.1772119986 1.54845765e-22)
(-0.02971786845 -0.1188642346 -5.435490156e-24)
(-0.002179545106 -0.04005398812 0)
(-0.0002117197426 0.04671640065 0)
(-0.01125001096 0.1105498154 0)
(-0.02815624507 0.1497355043 -5.02276624e-22)
(-0.04874479288 0.1701517645 -1.88100086e-23)
(-0.07100086537 0.1766257184 2.038381612e-23)
(-0.09399451386 0.1724526544 -2.014314075e-23)
(-0.1171434298 0.1594871016 -2.316886831e-23)
(-0.1400179514 0.1384805109 -3.029828432e-22)
(-0.162132891 0.1095160739 6.698615099e-23)
(-0.1827959057 0.07245187167 4.513183825e-23)
(-0.2009835571 0.02734928973 -4.577726333e-23)
(-0.2152270271 -0.02508697733 0)
(-0.2235562214 -0.08298351445 -7.839704377e-23)
(-0.2234632197 -0.142725735 0)
(-0.2120679434 -0.1981820908 -3.739567619e-22)
(-0.1867434554 -0.2400773728 5.244964561e-22)
(-0.146443831 -0.2560773446 0)
(-0.09394567777 -0.2331209535 -1.494003442e-22)
(-0.04022001011 -0.1639613681 1.937560365e-22)
(-0.003201100263 -0.0586106321 -3.411539896e-22)
(-0.0002015407175 0.05297585222 0)
(-0.0106726188 0.1248172411 9.182881275e-22)
(-0.02628446695 0.1687424613 -2.440688744e-23)
(-0.04501107763 0.1916455176 9.193349622e-22)
(-0.06494597361 0.1992921088 -2.512089582e-23)
(-0.08536628358 0.1956104347 2.838847699e-23)
(-0.1059305635 0.1827886867 -2.812933727e-23)
(-0.126492418 0.1616583528 -1.660919802e-23)
(-0.1468996846 0.1321762317 -5.260234619e-22)
(-0.1668458159 0.09389646784 -8.906637444e-24)
(-0.1857303025 0.04640576418 9.660204576e-24)
(-0.2024781683 -0.01023784686 3.313080409e-22)
(-0.2154154608 -0.07499820356 -5.820745357e-22)
(-0.2220209709 -0.145031185 0)
(-0.2188032099 -0.2146760638 8.887334339e-22)
(-0.2016257524 -0.2740016449 -4.94089657e-22)
(-0.1668639195 -0.3075811987 -1.572226383e-23)
(-0.1140220097 -0.295381194 0)
(-0.0528848204 -0.2195802598 -1.890193898e-22)
(-0.004749188199 -0.08377278015 3.360597499e-22)
(-0.0003641987835 0.0590231793 1.551012172e-23)
(-0.01049574006 0.1379881526 -8.764208383e-22)
(-0.02441389557 0.1856804131 -1.15706033e-21)
(-0.04026724347 0.2101384783 -8.628997876e-22)
(-0.05630729416 0.2182348942 0)
(-0.0721485629 0.2146190295 3.513809075e-23)
(-0.08779221348 0.2018791975 -7.294874173e-23)
(-0.1034562766 0.1810005623 5.86789045e-23)
(-0.1193983853 0.1518997251 3.021369793e-22)
(-0.1357931531 0.1139150576 -1.128196743e-23)
(-0.1526082307 0.06621424999 0)
(-0.1694521364 0.008177203588 -3.603932735e-22)
(-0.1852760588 -0.06015987724 7.515674035e-22)
(-0.1980448508 -0.1372747019 8.831710605e-22)
(-0.2043546257 -0.2189261901 -5.296632934e-22)
(-0.1990977609 -0.2959712932 5.162695374e-22)
(-0.176060533 -0.3514072612 1.078236143e-23)
(-0.1300890634 -0.3584150807 -1.095551235e-23)
(-0.06688803328 -0.2843276529 -8.215229513e-23)
(-0.007083319999 -0.1169964423 0)
(-0.0009095781419 0.06540041681 -1.911488769e-23)
(-0.0116759182 0.1502816436 -1.326966789e-21)
(-0.023888821 0.2000659589 1.094238647e-21)
(-0.03601340312 0.2244216998 6.734936089e-22)
(-0.04657308505 0.2316588274 6.014637075e-22)
(-0.0557703818 0.227239372 6.643962691e-22)
(-0.06411245383 0.2141774892 -4.458681383e-23)
(-0.07227561261 0.1936494388 -3.461339793e-22)
(-0.08096972571 0.1656028317 2.152163974e-22)
(-0.09087191969 0.129270735 0)
(-0.1025547421 0.08353082385 0)
(-0.1163622129 0.02720010619 2.655398455e-22)
(-0.1321589535 -0.04062006125 8.194326278e-23)
(-0.1489252297 -0.1200128319 -2.821626079e-22)
(-0.1641284264 -0.2089300701 -5.411275377e-23)
(-0.1727877607 -0.3006992519 1.30195226e-22)
(-0.1670311298 -0.3793329117 -3.400510217e-22)
(-0.1365292437 -0.4136451985 -1.593799347e-23)
(-0.08018250147 -0.3538326217 8.204002311e-23)
(-0.01050762298 -0.1594130574 -6.032152145e-22)
(-0.002260498838 0.07348883577 0)
(-0.01580355744 0.1626521792 2.145876429e-21)
(-0.02665042623 0.2117904766 0)
(-0.03422339524 0.2333947304 -1.351809046e-21)
(-0.03759398303 0.2377766856 6.184055069e-23)
(-0.03799684987 0.2312553545 -6.193099964e-22)
(-0.03668265593 0.2171899021 -4.756287724e-22)
(-0.03489035997 0.1968934493 8.301260732e-22)
(-0.03378837555 0.1703342376 -1.885699387e-22)
(-0.03449876096 0.1367221063 0)
(-0.03811572403 0.09479673468 0)
(-0.04564992159 0.04304286424 2.410615375e-23)
(-0.05790804071 -0.02013781375 -6.007201854e-22)
(-0.07514598352 -0.09620650333 -4.30956953e-22)
(-0.09645174831 -0.1855556182 4.637865211e-22)
(-0.1183462605 -0.285356778 -6.48874089e-22)
(-0.1332715374 -0.3838386543 9.119950185e-23)
(-0.1265350984 -0.4504358724 2.937281746e-23)
(-0.08899154076 -0.4198536385 5.660440879e-22)
(-0.01526917933 -0.2111719736 6.020784902e-22)
(-0.005180899679 0.08598045933 0)
(-0.02525550745 0.17662912 1.465579452e-22)
(-0.03483408008 0.2205961576 -4.917147943e-23)
(-0.03640013817 0.2354859375 7.642936115e-22)
(-0.03018482916 0.2343406777 -7.005383063e-22)
(-0.01916579238 0.22416039 4.746483933e-23)
(-0.005615147701 0.2083525853 -1.018610357e-22)
(0.00856961091 0.1881241088 -3.389890709e-22)
(0.02179886521 0.1633911264 2.062823826e-22)
(0.03262781813 0.1333242721 0)
(0.03958458874 0.09664086041 0)
(0.04117013542 0.05174056292 -2.902669029e-22)
(0.03578484081 -0.003255399233 0)
(0.02198184918 -0.07058360962 -5.512189539e-22)
(-0.00126484394 -0.1525735516 -1.492377711e-23)
(-0.03310469701 -0.2505949854 2.559743446e-23)
(-0.06909235677 -0.3599341523 2.203146695e-22)
(-0.09227826914 -0.4575424533 4.788064625e-24)
(-0.08718089889 -0.4698129421 -5.789409117e-22)
(-0.02103127145 -0.26989723 0)
(-0.01111631548 0.1085974962 0)
(-0.04248901831 0.1947151668 -8.848484283e-22)
(-0.047955289 0.2258195522 -5.411042681e-22)
(-0.03919535917 0.2282135572 4.543819555e-22)
(-0.01877830231 0.2182328153 -1.709983837e-24)
(0.007664314907 0.202822037 -4.561052676e-23)
(0.03667993551 0.184761978 5.696685514e-22)
(0.06582998801 0.1647118223 -2.766891889e-23)
(0.09327131154 0.1423128182 -2.069782714e-22)
(0.1173891634 0.1166274938 3.142214986e-23)
(0.1365461713 0.08641143846 -3.425918645e-23)
(0.148966929 0.05017668961 -3.690595622e-23)
(0.15252758 0.006159166134 3.205634887e-22)
(0.1449367048 -0.04796127104 6.119608991e-22)
(0.1235159806 -0.1153052915 -5.101174295e-22)
(0.08633533555 -0.2004195654 -1.616060361e-22)
(0.03199089392 -0.3067806595 1.531305934e-22)
(-0.02362123086 -0.4239837148 7.293650677e-23)
(-0.06492413025 -0.4871612793 1.913291355e-21)
(-0.02509971699 -0.3291544747 2.954991171e-21)
(-0.02004680462 0.1460727383 -4.390209221e-23)
(-0.06416406114 0.2112955829 4.417381982e-23)
(-0.05070230452 0.2177300491 1.000189103e-21)
(-0.01934097342 0.2014679997 -8.270559436e-24)
(0.02414464967 0.1809076194 0)
(0.07154122121 0.1606933365 4.36372528e-23)
(0.1190703416 0.1416495511 -2.273853436e-22)
(0.1644767346 0.1233181838 -9.027963241e-23)
(0.2062251176 0.1048117307 3.680736889e-23)
(0.2429643042 0.08507140172 -1.70165573e-23)
(0.2732207598 0.06296147716 3.429971955e-23)
(0.2952536126 0.03726293822 -6.592684348e-23)
(0.3066971076 0.0065350679 -9.303909023e-23)
(0.3049738327 -0.03087770086 1.517045037e-22)
(0.2863936262 -0.0778629101 0)
(0.2470568095 -0.1399300373 1.505613633e-22)
(0.1810922244 -0.2266299755 2.560013731e-22)
(0.09604450307 -0.344389495 0)
(-0.006697615577 -0.4552210221 -3.675634402e-21)
(-0.01922408196 -0.377753759 -2.892620653e-21)
(-0.02591951359 0.2276828785 -9.51420547e-22)
(-0.03998324308 0.2238216505 -1.388976906e-22)
(0.03656137263 0.1810585359 -2.335583298e-22)
(0.1090503045 0.1451059097 -1.193742804e-22)
(0.1817191194 0.1172445506 -4.295829567e-23)
(0.2490090737 0.09627907773 9.783191953e-23)
(0.310033671 0.08002510576 -1.4085936e-22)
(0.3646209343 0.06656815492 1.297176318e-22)
(0.4126252507 0.05449179021 -8.620126431e-23)
(0.4536250314 0.04270895016 1.132189006e-25)
(0.4867878738 0.03032298468 1.527742602e-23)
(0.5107451378 0.0165290187 7.997209188e-23)
(0.5236597468 0.000536514257 -1.811124842e-22)
(0.5231798024 -0.01863373273 -1.617147175e-22)
(0.5052323429 -0.04286478984 -4.262959956e-23)
(0.4658715089 -0.07633231209 0)
(0.3952696504 -0.1286089386 -1.846476329e-22)
(0.2916071053 -0.2208468099 8.148762335e-22)
(0.1197455108 -0.3525016904 1.631601408e-21)
(0.02670547266 -0.377549798 2.172655826e-21)
(0.2142894468 0.1347447205 9.864990542e-22)
(0.2776311197 0.09870503572 0)
(0.4316592312 0.0581041473 -2.59432224e-22)
(0.5304749357 0.03846264934 -1.741667978e-22)
(0.6016965756 0.02623419139 0)
(0.6571198963 0.01831923516 -6.009099041e-23)
(0.7015213608 0.01313600893 6.378008529e-23)
(0.7376042506 0.009542126785 -1.800158258e-23)
(0.7669368423 0.006804463956 2.885976744e-23)
(0.7902106691 0.004464744114 2.315034869e-23)
(0.8074555015 0.002221319932 0)
(0.8182621359 -0.000150075001 -2.873034582e-23)
(0.8216499718 -0.002723848357 0)
(0.8162394199 -0.005712668732 2.738153829e-23)
(0.799133315 -0.009611382899 1.421694603e-23)
(0.7679986347 -0.01500255111 -5.799401065e-23)
(0.7106555757 -0.02502519956 -2.535660304e-22)
(0.6235183982 -0.04204285409 -6.918100904e-22)
(0.4230091022 -0.09182968081 0)
(0.270567469 -0.1524021841 -2.119483693e-21)
)


// ************************************************************************* //
