/*--------------------------------*- C++ -*----------------------------------*\
  =========                 |
  \\      /  F ield         | OpenFOAM: The Open Source CFD Toolbox
   \\    /   O peration     | Website:  https://openfoam.org
    \\  /    A nd           | Version:  13
     \\/     M anipulation  |
\*---------------------------------------------------------------------------*/
FoamFile
{
    format      ascii;
    class       scalarField;
    location    "3";
    object      p_all;
}
// * * * * * * * * * * * * * * * * * * * * * * * * * * * * * * * * * * * * * //


400
(
-3.83587755e-08
-0.0003108981219
-0.0004384809648
-0.0003690707556
-0.0001244207231
0.0002670310243
0.0007750262565
0.001372070174
0.002032585687
0.002730968228
0.003439316061
0.004126131929
0.004754808017
0.005285131942
0.005676177558
0.005891561323
0.005907885113
0.005727951168
0.005427957768
0.004995516944
0.0003358956748
5.207033366e-06
-0.0001424207213
-8.916022109e-05
0.0001247063118
0.0004755131044
0.0009377677001
0.001486732788
0.002097989837
0.002745872815
0.003401712723
0.004033243851
0.004604107593
0.005075657998
0.005410118497
0.005576689272
0.00555954053
0.005368110715
0.005048959795
0.004590555245
0.0004684173686
0.0001119667509
-5.532524969e-05
-4.148469304e-06
0.0001990481657
0.0005312927862
0.0009704821838
0.001495238538
0.002083462299
0.002710522986
0.00334762776
0.003961424473
0.004513538374
0.004963406422
0.005272173113
0.005409200168
0.005359847249
0.005132724214
0.004752354409
0.00421268165
0.0003322958899
-5.477812226e-05
-0.0002423398304
-0.0001868879579
2.170485183e-05
0.0003581320558
0.0008013932233
0.001332972032
0.001933638739
0.002580484644
0.003244535322
0.003890324557
0.004474362593
0.004949348123
0.005268471991
0.00539345472
0.005303862365
0.005004924289
0.004507214718
0.003820146981
-0.0001417638833
-0.0005491298359
-0.0007439935424
-0.0006727432793
-0.0004437760437
-8.470478319e-05
0.0003846779938
0.0009493649031
0.001594002616
0.002298404612
0.003033486196
0.003761164418
0.004429734172
0.004980490212
0.005351889459
0.005490437617
0.005363485332
0.004971116412
0.004314900784
0.003432286436
-0.001016821692
-0.001434825723
-0.001629296562
-0.001532951982
-0.001272364448
-0.0008770246577
-0.0003646696581
0.0002545837113
0.0009711655027
0.001769650214
0.002621085218
0.00348751028
0.004305077752
0.004999489082
0.005485892581
0.00568448851
0.005539643896
0.005039968398
0.004174536506
0.0030217086
-0.002354119529
-0.002780928984
-0.002973547237
-0.002849011486
-0.002554086106
-0.002119836369
-0.001560702807
-0.0008797415766
-7.77087035e-05
0.000837536681
0.001835893186
0.002908960455
0.003956032433
0.00488914063
0.00559085727
0.005937871691
0.005830889892
0.005229526499
0.004093208908
0.002560610893
-0.004221629358
-0.0046625738
-0.004858814538
-0.004712711611
-0.004394758425
-0.003937778781
-0.003351526854
-0.002628961536
-0.00175729962
-0.0007265372986
0.0004676420178
0.001761775531
0.00312001708
0.004418364104
0.00549405249
0.006153774129
0.006215732897
0.00557015102
0.004104162099
0.002046993037
-0.006695213005
-0.00716032139
-0.007372349438
-0.007222576695
-0.006911203972
-0.006474450775
-0.005917038589
-0.005219205431
-0.004348694187
-0.003270411558
-0.001955149747
-0.0004076014503
0.001335137036
0.003153761877
0.004841858632
0.006103663351
0.006609134717
0.006096894327
0.004288182696
0.001540877955
-0.009857514771
-0.01035803781
-0.010601789
-0.01047452338
-0.01021683584
-0.009872726846
-0.009443928859
-0.008897394498
-0.008176712741
-0.007209109294
-0.00591317403
-0.004221036085
-0.002099469504
0.0003802165742
0.002994695383
0.00532096988
0.006785173856
0.006823602142
0.004800444152
0.001225516251
-0.01379876611
-0.01434086751
-0.01462803571
-0.01454622803
-0.01439587044
-0.01423754804
-0.01407637699
-0.01387030167
-0.01353934035
-0.01296493974
-0.01198750635
-0.01041645153
-0.008079759894
-0.00489628355
-0.001022249859
0.003012283285
0.00628816642
0.007703344607
0.005908854858
0.001516734052
-0.01862589359
-0.01919702959
-0.01951753494
-0.01947488897
-0.01946388537
-0.01957571162
-0.01983001805
-0.02018596822
-0.02054831798
-0.02075318449
-0.0205454811
-0.01956818073
-0.01739916082
-0.01367694748
-0.008320759106
-0.001847320913
0.004444813435
0.008631009251
0.008066959777
0.003259974072
-0.02449232796
-0.02502907189
-0.02531612879
-0.02522964273
-0.02531831817
-0.02572145871
-0.02648615348
-0.02758590282
-0.02892449074
-0.03030341388
-0.03136952449
-0.03156585142
-0.03012800433
-0.0262931232
-0.01949630966
-0.009988202254
0.0006974981258
0.009629159135
0.01208046624
0.008059266375
-0.03167542767
-0.03198692353
-0.0320521953
-0.03168729985
-0.03169410405
-0.03227458423
-0.03350986944
-0.03539467998
-0.03784226694
-0.04063147373
-0.04331940256
-0.04513971684
-0.04491923061
-0.0415373836
-0.03361489163
-0.02083046199
-0.00457125486
0.01139014368
0.01948338734
0.01873381264
-0.04074712214
-0.04031564471
-0.03972354631
-0.03858955174
-0.03812050456
-0.0385734235
-0.04004874638
-0.04254942775
-0.04599031062
-0.05012474779
-0.0544224025
-0.0579412427
-0.05928775323
-0.05640081175
-0.04757661273
-0.03153181281
-0.008984884082
0.0161841223
0.03326251156
0.03986929413
-0.05302679057
-0.05052888244
-0.0483651905
-0.04557570021
-0.04396807332
-0.04378529088
-0.04508967763
-0.04784340892
-0.05192001603
-0.05701007179
-0.06247151083
-0.06716479175
-0.06936250685
-0.0667089625
-0.05668711272
-0.03715494223
-0.007813625069
0.02864792653
0.05865374531
0.07853887952
-0.07123556782
-0.06320269227
-0.05766863928
-0.0518607752
-0.0482691129
-0.04688287996
-0.0475903102
-0.05021496093
-0.05450814952
-0.06002613488
-0.0659590146
-0.07094291992
-0.07295532143
-0.0692711316
-0.05682403799
-0.03267279029
0.004576328462
0.05510336074
0.1026854914
0.1438816998
-0.103962602
-0.08042411917
-0.0680552737
-0.05700332134
-0.05030230768
-0.04712702337
-0.04690763835
-0.04915104616
-0.05335272937
-0.05883611391
-0.06455469123
-0.06888566713
-0.06952661627
-0.0633320755
-0.04678664773
-0.01603766605
0.03160902974
0.09886473426
0.1700182298
0.2479247756
-0.1639359393
-0.0962001511
-0.07366598828
-0.05515777985
-0.04544650358
-0.04128304079
-0.04096177628
-0.0434493147
-0.04792624065
-0.05348736892
-0.05889308863
-0.06233242241
-0.06126065313
-0.05212211067
-0.03102103085
0.007224319919
0.06735117999
0.1562497595
0.2656522955
0.4275927067
-0.3938232201
-0.1347061222
-0.07396975407
-0.04808620544
-0.03520017096
-0.03072762692
-0.0312269048
-0.03467401347
-0.03990965689
-0.04589282844
-0.05130785723
-0.05430582829
-0.05238096032
-0.04207318406
-0.01829728794
0.02603356172
0.09960723209
0.2240882097
0.409995902
0.7703715294
)


// ************************************************************************* //
