/*--------------------------------*- C++ -*----------------------------------*\
  =========                 |
  \\      /  F ield         | OpenFOAM: The Open Source CFD Toolbox
   \\    /   O peration     | Website:  https://openfoam.org
    \\  /    A nd           | Version:  13
     \\/     M anipulation  |
\*---------------------------------------------------------------------------*/
FoamFile
{
    format      ascii;
    class       scalarField;
    location    "3";
    object      p_all;
}
// * * * * * * * * * * * * * * * * * * * * * * * * * * * * * * * * * * * * * //


400
(
-4.327063975e-10
-0.0003064274401
-0.0004902470583
-0.0004035243124
3.768826832e-06
0.0007255019299
0.001734931022
0.002993534671
0.00445351722
0.006058217751
0.007742286462
0.009432399015
0.01104901597
0.01250943141
0.01373250357
0.01464555122
0.01519461983
0.01536097027
0.01520183276
0.01489276554
0.0002995210974
-2.405100528e-05
-0.0001542725945
-4.810378974e-05
0.0003440744478
0.001024367719
0.001974052538
0.003160911349
0.004541919072
0.006064126077
0.007665280422
0.009274933399
0.01081654192
0.01221087948
0.01338123362
0.01426078738
0.01480312644
0.01499734864
0.01489988451
0.01458102352
0.0004865458556
5.863349597e-05
-9.382424893e-05
8.234106661e-07
0.0003786899682
0.001038786164
0.001964039814
0.003125152405
0.004481981288
0.005983909758
0.007570260803
0.009171299605
0.01071040012
0.01210744696
0.01328416484
0.01417162962
0.01472051688
0.01491427727
0.01479696329
0.01437377428
0.0003943832594
-0.0001305951251
-0.0003227634796
-0.0002483404532
0.0001206569789
0.0007787921414
0.001708539947
0.002881986267
0.004260805567
0.005795744075
0.0074264578
0.009082167429
0.01068346533
0.01214560231
0.01338383481
0.01432128192
0.0148997481
0.01509353082
0.01494047433
0.01441764414
-6.037419536e-05
-0.0006763081712
-0.0009114565446
-0.0008552981938
-0.000482876722
0.0001967111508
0.0011647742
0.002393845741
0.003846532811
0.005474018241
0.00721511687
0.008996234051
0.01073259548
0.01233110006
0.01369564169
0.01473565649
0.01537874389
0.01558774794
0.01539929819
0.01477892651
-0.0009263270963
-0.001636693614
-0.001914779074
-0.001869792073
-0.001477637069
-0.0007506168512
0.0002912243345
0.001620523842
0.003200468013
0.004982253819
0.006903165693
0.008885554782
0.01083717122
0.0126531109
0.01422088517
0.01542987038
0.01618680543
0.01643846075
0.01622102212
0.01549402539
-0.00225531891
-0.003072871897
-0.003394609922
-0.003351816317
-0.002921483015
-0.002119669644
-0.0009679860532
0.0005064034224
0.002267524266
0.004266871416
0.006440326609
0.008705829778
0.01096243874
0.01309056253
0.01495613698
0.01642070595
0.01736051449
0.01769711819
0.01746214296
0.01660915431
-0.004115750243
-0.005061272346
-0.005428846322
-0.005378317041
-0.0048899594
-0.003985258483
-0.002687728135
-0.001023884757
0.0009720054859
0.003252853876
0.005754365402
0.008391040003
0.01105357709
0.01360608002
0.0158880207
0.01772376284
0.01894519629
0.01943268444
0.01920205035
0.01819627104
-0.00660148053
-0.007702899257
-0.008119054922
-0.008048990176
-0.007480731426
-0.006444009702
-0.004964751715
-0.003068062251
-0.0007850726727
0.001840514436
0.004746762263
0.007847509609
0.01102802978
0.0141371117
0.01698459862
0.01934757764
0.02099465426
0.02173901081
0.02155704488
0.02036922686
-0.009841497781
-0.01113304953
-0.01159848552
-0.0114921493
-0.01081748843
-0.009616695871
-0.007918766919
-0.005746428512
-0.003125935482
-9.496354578e-05
0.003290844068
0.006949598207
0.01076818418
0.01458580585
0.01818407373
0.02128458093
0.02356923148
0.02474394237
0.02470019964
0.02330961271
-0.01401429159
-0.01553439687
-0.01604208526
-0.0158711093
-0.0150530379
-0.01364838442
-0.01168995525
-0.009197209384
-0.006190036166
-0.002697305339
0.001236874959
0.00554183481
0.01011915833
0.01481178735
0.01938376928
0.023500566
0.02673323365
0.02862289117
0.02889370048
0.02731359237
-0.01937199376
-0.02115664213
-0.02167967504
-0.02139056725
-0.02036961882
-0.01870321242
-0.0164286587
-0.01356190174
-0.01011622199
-0.006109741201
-0.001568728443
0.003455810947
0.008900836477
0.01463691508
0.02043724666
0.02592831434
0.03055562605
0.03362182073
0.03454359612
0.03287840074
-0.02628295122
-0.02834692935
-0.02881247703
-0.02829983373
-0.02697088191
-0.02494652054
-0.02226895848
-0.01895187208
-0.01500412122
-0.01043335137
-0.005244116927
0.0005533813061
0.006948065891
0.01387775833
0.02117561285
0.02847937119
0.03512463442
0.04009908687
0.04229255516
0.04086061204
-0.03530889707
-0.03759590309
-0.03782896308
-0.03688243937
-0.03505126725
-0.03249861647
-0.02927112199
-0.02538327884
-0.02084379965
-0.01565080351
-0.009781265242
-0.003189724939
0.00419373619
0.01242478459
0.02147565651
0.0310966382
0.0405946361
0.04860160562
0.05317295232
0.05275815419
-0.04734643955
-0.04960113236
-0.04920113898
-0.04740124786
-0.04470817097
-0.04132866662
-0.03730926104
-0.03266643368
-0.02740978787
-0.02152488871
-0.01495349317
-0.007573441012
0.0007915740888
0.01037357914
0.02138864336
0.03386597797
0.04728029947
0.05998563982
0.06884112066
0.07118408369
-0.06389729883
-0.06533674052
-0.0633977911
-0.05991735557
-0.05572261768
-0.05103724575
-0.045879457
-0.040247877
-0.03413423366
-0.02749211684
-0.0202089251
-0.01207280414
-0.002768888011
0.008161466483
0.02128989342
0.0371518257
0.0557564927
0.07553294093
0.09187124862
0.1005803009
-0.08761995008
-0.08600822942
-0.08049851505
-0.0737901156
-0.06709073487
-0.06049046552
-0.053849042
-0.04705908009
-0.04003175092
-0.0326421769
-0.0246933989
-0.01586712774
-0.005689835199
0.006554729406
0.02187837767
0.0415701709
0.06673824711
0.09678671001
0.1259064583
0.1482020553
-0.1249921851
-0.112942913
-0.09917762641
-0.0866852738
-0.07635439602
-0.06748932606
-0.05936247295
-0.05157018573
-0.04384500945
-0.03592314539
-0.02750013979
-0.01814687792
-0.00723135692
0.006224055035
0.0236860931
0.04738148976
0.08020391456
0.1243772528
0.1751515818
0.2267257407
-0.196689235
-0.1455939634
-0.114461339
-0.09367218885
-0.07979976642
-0.06935641265
-0.06057183309
-0.05253094129
-0.04471779391
-0.03675402391
-0.02825831576
-0.01873101222
-0.007430659088
0.006811696818
0.02588677149
0.05294623368
0.09312253402
0.1543707902
0.2408743954
0.365109147
-0.3695832661
-0.1865349162
-0.1181956725
-0.09018293688
-0.0751089012
-0.0650436914
-0.05708694672
-0.04992825466
-0.04290892413
-0.03561933093
-0.02768762281
-0.01863400006
-0.007725579502
0.006241010462
0.02533329884
0.05346972382
0.09849738467
0.1800415676
0.3336040118
0.62936808
)


// ************************************************************************* //
