/*--------------------------------*- C++ -*----------------------------------*\
  =========                 |
  \\      /  F ield         | OpenFOAM: The Open Source CFD Toolbox
   \\    /   O peration     | Website:  https://openfoam.org
    \\  /    A nd           | Version:  13
     \\/     M anipulation  |
\*---------------------------------------------------------------------------*/
FoamFile
{
    format      ascii;
    class       surfaceScalarField;
    location    "3";
    object      phi;
}
// * * * * * * * * * * * * * * * * * * * * * * * * * * * * * * * * * * * * * //

dimensions      [0 3 -1 0 0 0 0];

internalField   nonuniform List<scalar> 
760
(
-1.363857913e-05
1.363900166e-05
-5.920602883e-05
4.556744432e-05
-0.0001247638784
6.555780665e-05
-0.0001980043521
7.324035943e-05
-0.0002705948531
7.259038983e-05
-0.0003368151921
6.622024452e-05
-0.0003926415229
5.58262581e-05
-0.0004350422304
4.240065446e-05
-0.0004615872394
2.654501958e-05
-0.0004703195541
8.732313404e-06
-0.0004598799231
-1.043960568e-05
-0.00042978036
-3.009950104e-05
-0.0003809136842
-4.886661159e-05
-0.0003160323565
-6.488124179e-05
-0.000240143673
-7.58885654e-05
-0.000160685193
-7.945839156e-05
-8.726174844e-05
-7.342343735e-05
-3.080398497e-05
-5.645779925e-05
-1.185959203e-06
-2.961801995e-05
-1.185889691e-06
-5.058368848e-05
6.422269142e-05
-0.0001744495851
0.000169433378
-0.0003434859126
0.0002345942399
-0.0005314850924
0.0002612395456
-0.0007185278553
0.0002596331081
-0.000889961156
0.0002376534876
-0.001035015158
0.0002008802206
-0.001145531488
0.0001529168884
-0.001215101136
9.611456321e-05
-0.001238752226
3.238322767e-05
-0.001213203303
-3.598875957e-05
-0.001137546472
-0.0001057565385
-0.001014325
-0.0001720882074
-0.0008506486714
-0.0002285576345
-0.0006590886191
-0.0002674486822
-0.0004578312907
-0.0002807157901
-0.0002695919399
-0.0002616627903
-0.0001186128127
-0.0002074368354
-2.589427201e-05
-0.0001223364153
-2.708005704e-05
-8.1483199e-05
0.0001457058573
-0.0002722078068
0.0003601578203
-0.0005270790892
0.0004894654301
-0.0008096941743
0.0005438545218
-0.001091779437
0.000541718275
-0.001351800753
0.0004976747284
-0.001573414846
0.0004224943091
-0.001743944398
0.0003234464609
-0.001853302429
0.000205472638
-0.001893604757
7.268558776e-05
-0.001859549995
-7.004344266e-05
-0.001749443194
-0.0002158632311
-0.001566824114
-0.0003547071824
-0.001322112699
-0.0004732689748
-0.001033877694
-0.0005556836602
-0.0007289553722
-0.0005856380855
-0.000440629228
-0.0005499888667
-0.0002042860652
-0.0004437798953
-5.100342799e-05
-0.0002756188799
-7.808345028e-05
-0.0001069123607
0.0002526182917
-0.000355695473
0.0006089408903
-0.000686927102
0.000820697013
-0.00105440197
0.0009113293313
-0.001422620563
0.0009099367968
-0.001764463865
0.0008395179327
-0.002059026468
0.0007170568298
-0.002289677524
0.0005540974369
-0.00244272143
0.0003585164737
-0.002506935303
0.0001368993602
-0.002474098931
-0.0001028798598
-0.002340376417
-0.0003495857223
-0.002108687138
-0.0005863964119
-0.001791103878
-0.0007908521884
-0.001410910223
-0.0009358772709
-0.0010031582
-0.0009933900138
-0.0006125446747
-0.0009406022461
-0.0002878279117
-0.0007684965399
-7.351414553e-05
-0.0004899325281
-0.0001515976364
-0.0001300996788
0.0003827179758
-0.0004327861273
0.0009116273144
-0.0008363415351
0.001224252359
-0.001285318814
0.001360306551
-0.001737832262
0.00136245023
-0.002162171157
0.001263856833
-0.002533716921
0.0010886026
-0.002832324023
0.0008527045228
-0.003040525509
0.000566717951
-0.003142875316
0.0002392491631
-0.003126604718
-0.0001191504198
-0.00298334797
-0.0004928424188
-0.002712672724
-0.0008570716375
-0.002325705535
-0.001177819379
-0.001848825354
-0.001412757393
-0.001325622389
-0.001516592844
-0.0008151516252
-0.001451072897
-0.0003848177219
-0.001198830385
-9.841513317e-05
-0.0007763350951
-0.0002500127684
-0.0001531052526
0.000535823199
-0.0005094614344
0.001267983473
-0.0009855208851
0.001700311769
-0.00151733809
0.001892123691
-0.002057560738
0.001902672825
-0.002570937572
0.00177723362
-0.003030074485
0.001547739465
-0.003411821887
0.001234451894
-0.003694726323
0.0008496223839
-0.003857918947
0.0004024418077
-0.00388188687
-9.518247566e-05
-0.00375009871
-0.0006246305784
-0.003454628813
-0.001152541577
-0.003001416362
-0.00163103184
-0.002416998341
-0.00199717534
-0.001753533064
-0.002180058032
-0.001088781994
-0.002115823976
-0.0005173955559
-0.001770216825
-0.0001328357422
-0.001160894919
-0.000382848425
-0.0001773465144
0.0007131696984
-0.0005895710305
0.001680208001
-0.001141019126
0.002251759872
-0.001759816488
0.002510921026
-0.002394223645
0.002537079969
-0.003006798581
0.002389808544
-0.003568671379
0.002109612223
-0.004054563905
0.001720344389
-0.004439094988
0.001234153442
-0.004694697476
0.0006580443034
-0.004793381949
3.501958029e-06
-0.004704390505
-0.0007136221141
-0.004407356254
-0.001449575907
-0.003896319715
-0.002142068374
-0.003192434212
-0.002701060757
-0.002354535674
-0.003017956553
-0.001483630455
-0.002986729252
-0.0007138551382
-0.002539992136
-0.0001856979353
-0.001689052054
-0.000568546311
-0.00020349838
0.0009166680672
-0.0006748598102
0.002151569449
-0.00130543555
0.002882335645
-0.002015747734
0.003221233194
-0.002750917871
0.003272250099
-0.003473078949
0.003111969613
-0.004153766914
0.002790300143
-0.004767156491
0.002333733921
-0.005284751268
0.001751748156
-0.005672123573
0.001045416595
-0.00588663235
0.000218010668
-0.0058850609
-0.0007151936698
-0.005623613728
-0.001711023114
-0.00507572576
-0.002689956267
-0.004247962859
-0.003528823569
-0.003199729618
-0.004066189816
-0.002057242276
-0.004129216575
-0.001008772085
-0.003588462252
-0.0002683551613
-0.002429468837
-0.0008369014317
-0.0002318158369
0.001148483925
-0.0007654595107
0.002685213149
-0.001477708035
0.003594584247
-0.002281438515
0.004024963669
-0.003119959936
0.00411077149
-0.003957096829
0.003949106459
-0.004767219017
0.003600422269
-0.005526279721
0.00309279457
-0.006204461489
0.002429929857
-0.006760879276
0.001601834349
-0.007140910509
0.0005980418881
-0.007279123582
-0.0005769805704
-0.007105218897
-0.001884927669
-0.006561295307
-0.003233879696
-0.005625872195
-0.004464246657
-0.004345659382
-0.0053464027
-0.002866116791
-0.005608759123
-0.001441516093
-0.005013062888
-0.0003952392798
-0.003475745671
-0.001232140844
-0.000262696428
0.001411180413
-0.0008609556943
0.003283472425
-0.001654264816
0.004387893451
-0.002547197023
0.004917895879
-0.003482490453
0.005046064864
-0.004427938773
0.004894554692
-0.005363552264
0.004536035704
-0.006270145246
0.003999387531
-0.007119758259
0.00327954287
-0.007868145847
0.002350221927
-0.008450047094
0.001179943155
-0.008779608407
-0.0002474191469
-0.008756154657
-0.001908381238
-0.008282261289
-0.003707772975
-0.00729280882
-0.005453699218
-0.005799684979
-0.00683952659
-0.003946299256
-0.007462144828
-0.00205058133
-0.00690878092
-0.0005841744509
-0.004942152647
-0.001816315299
-0.000297660938
0.001708841434
-0.0009623391395
0.003948150616
-0.001831409679
0.005256964031
-0.002799532308
0.005886018514
-0.003809879225
0.00605641174
-0.004836343525
0.005921018903
-0.005867290684
0.005566982823
-0.00689177997
0.005023876801
-0.007888136481
0.004275899439
-0.008814528128
0.003276613588
-0.009601992733
0.001967407764
-0.01015119852
0.0003017866881
-0.01033698148
-0.001722598258
-0.01002117795
-0.004023576592
-0.009082410345
-0.006392466896
-0.007468684105
-0.008453252787
-0.005278726058
-0.009652102832
-0.002860128355
-0.009327378617
-0.0008556563427
-0.006946624664
-0.002671971519
-0.0003411026262
0.002049944133
-0.001075298831
0.004682346803
-0.00200938822
0.006191053423
-0.003025474676
0.00690210497
-0.004068189988
0.007099127067
-0.005119456594
0.006972285469
-0.006178212625
0.006625738809
-0.007244858637
0.006090522734
-0.008309141665
0.005340182443
-0.009340027375
0.004307499301
-0.01027713006
0.002904510494
-0.01102428656
0.00104894327
-0.01144776276
-0.001299122031
-0.01138204055
-0.004089298851
-0.0106481596
-0.007126347832
-0.009103151934
-0.009998260354
-0.006739783427
-0.01201547144
-0.003853767398
-0.01221339468
-0.001229103586
-0.009571288392
-0.003901075225
-0.0004033577391
0.002453301935
-0.001215247088
0.005494236182
-0.002197986613
0.007173792973
-0.003218429886
0.00792254821
-0.004225143549
0.008105840732
-0.00521063286
0.007957774778
-0.006186318467
0.007601424381
-0.00716639841
0.007070602613
-0.008157012271
0.006330796236
-0.009147498763
0.005297985768
-0.01010196658
0.003858978347
-0.01095032257
0.001897299336
-0.0115776142
-0.0006718303885
-0.01182229387
-0.003844619223
-0.01146652096
-0.007482120556
-0.01026764552
-0.01119713582
-0.008051122529
-0.01423199454
-0.004933246543
-0.01533127081
-0.001712261475
-0.01279227346
-0.005613336742
-0.0005058565276
0.002959158504
-0.001413875244
0.006402254947
-0.002421723703
0.008181641485
-0.003381896921
0.008882721355
-0.004254508249
0.008978452005
-0.005048228754
0.008751495302
-0.005789915923
0.008343111602
-0.006509704748
0.007790391471
-0.007233862675
0.007054954104
-0.007979889273
0.006044012305
-0.008750574743
0.00462966385
-0.009525365401
0.002672090036
-0.01023639724
3.920139214e-05
-0.01077607983
-0.003304936608
-0.01092817404
-0.007330026375
-0.01038003397
-0.01174527608
-0.008762288092
-0.01584974037
-0.005872544345
-0.01822101458
-0.002279952185
-0.01638486577
-0.007893288683
-0.0006899152267
0.003649073756
-0.001724928496
0.007437268187
-0.00271693464
0.009173647681
-0.003518214805
0.009684001509
-0.004120368207
0.009580605424
-0.00456091658
0.009192043697
-0.004888422158
0.008670617246
-0.005151624524
0.008053593915
-0.005398388943
0.007301718533
-0.005676666694
0.006322290045
-0.006033379329
0.00498637648
-0.00650753354
0.003146244166
-0.007123749072
0.0006554169304
-0.007833455755
-0.002595229834
-0.008507418163
-0.006656064016
-0.008837032059
-0.01141566224
-0.008301705584
-0.01638506667
-0.006294761789
-0.02022795841
-0.002842819013
-0.01983680873
-0.01073610785
-0.001025483878
0.004674557644
-0.00221562071
0.008627404882
-0.003095239869
0.01005326691
-0.003566755485
0.01015551721
-0.00369729378
0.009711143822
-0.003577720671
0.009072470682
-0.003289372526
0.008382269161
-0.002902865967
0.007667087369
-0.00248616936
0.006885021929
-0.002112975699
0.005949096421
-0.001867903649
0.004741304381
-0.001845982365
0.003124322843
-0.002144806534
0.0009542410872
-0.002832194038
-0.001907842281
-0.00390270676
-0.005585551459
-0.005163360115
-0.01015500899
-0.006080407869
-0.01546801894
-0.005684305019
-0.02062406125
-0.003188179338
-0.0223329343
-0.01392428708
-0.001612393911
0.006286951595
-0.002879371402
0.00989438228
-0.003365534406
0.01053942996
-0.003163000302
0.009952983223
-0.002495262836
0.009043406511
-0.001538591432
0.008115799422
-0.0004148750524
0.007258552808
0.0007865912346
0.006465621021
0.001987058312
0.005684554867
0.003101070178
0.004835084605
0.004024751261
0.003817623381
0.004629879234
0.00251919485
0.004763920883
0.000820199464
0.004266736245
-0.001410657668
0.003000162003
-0.004318977219
0.0009523916144
-0.008107238538
-0.001527920455
-0.01298770695
-0.003387429892
-0.0187645518
-0.002925028501
-0.0227953359
-0.01684931557
-0.002407603322
0.008694554986
-0.003193246984
0.01068002592
-0.002488374521
0.009834557576
-0.0009215328687
0.00838614165
0.001040646633
0.007081227099
0.003151684192
0.006004761955
0.005281691989
0.005128545035
0.007354389234
0.004392923758
0.00930843235
0.00373051176
0.01107300397
0.003070512965
0.01255221008
0.002338417084
0.01361530336
0.001456101456
0.01409026512
0.0003452377539
0.01377518442
-0.001095577116
0.01242988086
-0.002973673544
0.009829316293
-0.005506674162
0.005937040854
-0.009095431624
0.00147552353
-0.01430303445
-0.001333412848
-0.01998639957
-0.01818272847
-0.002091992213
0.01078654724
-2.19175305e-05
0.008609951318
0.003675423378
0.006137216712
0.007409699231
0.004651865797
0.0109197416
0.003571184724
0.01412389568
0.002800607938
0.01701208767
0.002240353121
0.01959641092
0.001808600592
0.0218794137
0.001447509013
0.02383752299
0.001112403636
0.02541119125
0.000764748824
0.0264959508
0.0003713419701
0.02694036275
-9.917419373e-05
0.02655874811
-0.0007139627225
0.02508277824
-0.001497703302
0.02216581348
-0.002589709597
0.01738250813
-0.004312126059
0.0104184997
-0.007339026016
0.002764638868
-0.01233253879
-0.01541808974
0.01078654729
0.01939649863
0.02553371536
0.03018558118
0.03375676594
0.03655737391
0.03879772699
0.04060632746
0.04205383646
0.04316624007
0.04393098878
0.04430233075
0.04420315662
0.04348919367
0.04199149048
0.03940178062
0.03508965457
0.02775062838
0.01541808977
)
;

boundaryField
{
    movingWall
    {
        type            calculated;
        value           uniform 0;
    }
    fixedWalls
    {
        type            calculated;
        value           uniform 0;
    }
    frontAndBack
    {
        type            empty;
    }
}


// ************************************************************************* //
