/*--------------------------------*- C++ -*----------------------------------*\
  =========                 |
  \\      /  F ield         | OpenFOAM: The Open Source CFD Toolbox
   \\    /   O peration     | Website:  https://openfoam.org
    \\  /    A nd           | Version:  13
     \\/     M anipulation  |
\*---------------------------------------------------------------------------*/
FoamFile
{
    format      ascii;
    class       surfaceScalarField;
    location    "3";
    object      phi_0;
}
// * * * * * * * * * * * * * * * * * * * * * * * * * * * * * * * * * * * * * //

dimensions      [0 3 -1 0 0 0 0];

internalField   nonuniform List<scalar> 
760
(
-2.939462755e-05
2.93947262e-05
-9.206895199e-05
6.26743642e-05
-0.0001725595186
8.049042795e-05
-0.0002541799882
8.16203361e-05
-0.0003298264627
7.564639671e-05
-0.0003957347974
6.590833384e-05
-0.0004495585798
5.382374381e-05
-0.0004896594188
4.010097551e-05
-0.0005148640607
2.52048237e-05
-0.0005243862487
9.522283522e-06
-0.0005178133393
-6.572993531e-06
-0.0004951242986
-2.268854278e-05
-0.0004567361073
-3.838793013e-05
-0.0004035769099
-5.315955035e-05
-0.0003372154887
-6.636111075e-05
-0.0002601441888
-7.707134573e-05
-0.000176493414
-8.365088892e-05
-9.392962181e-05
-8.25638175e-05
-2.991252133e-05
-6.401763548e-05
-2.991294364e-05
-6.242826892e-05
9.182286236e-05
-0.0001943876479
0.0001946334614
-0.0003723854822
0.0002584879738
-0.0005590145242
0.0002682492995
-0.0007352722329
0.000251904229
-0.0008907055941
0.0002213421609
-0.001018830296
0.0001819485995
-0.001115212331
0.0001364829923
-0.001176693926
8.66864617e-05
-0.001201103216
3.393247209e-05
-0.001187190489
-2.048585058e-05
-0.001134684298
-7.519474486e-05
-0.001044457514
-0.0001286137726
-0.0009188075088
-0.0001788093485
-0.0007619268998
-0.0002232412164
-0.0005808098459
-0.0002581892082
-0.00038717301
-0.0002772888304
-0.0002018482881
-0.0002678880533
-6.416511909e-05
-0.0002016993456
-9.407854642e-05
-8.653103661e-05
0.0001783537596
-0.0002757179896
0.0003838201326
-0.0005065825729
0.0004893526167
-0.0007425207912
0.0005041879095
-0.0009634668542
0.0004728503707
-0.00115746988
0.0004153453874
-0.001316770812
0.0003412493691
-0.001436023904
0.000255736131
-0.001511486551
0.0001621488719
-0.001540661392
6.310767484e-05
-0.001522182773
-3.896402209e-05
-0.001455856724
-0.0001415200134
-0.001342844817
-0.0002416252798
-0.001185996481
-0.0003356581028
-0.0009904019802
-0.0004188359998
-0.0007643459483
-0.0004842452624
-0.0005211055603
-0.0005205296734
-0.0002827088503
-0.0005062852878
-8.804446315e-05
-0.0003963622963
-0.0001821224995
-9.91681123e-05
0.0002775218006
-0.0003218498476
0.0006065018096
-0.0005876434358
0.0007551463984
-0.0008562397182
0.0007727845098
-0.001106237296
0.0007228476636
-0.001324950058
0.000634058138
-0.001504146532
0.0005204452272
-0.001638176536
0.0003897652356
-0.001723098208
0.0002470704447
-0.001756263508
9.627381539e-05
-0.001736161522
-5.906581141e-05
-0.001662446451
-0.0002152342627
-0.001536154311
-0.0003679178659
-0.001360102131
-0.0005117097438
-0.001139555907
-0.0006393820743
-0.0008833054687
-0.0007404958101
-0.0006056235804
-0.0007982123481
-0.0003303985333
-0.0007815108671
-0.0001010050542
-0.0006257556017
-0.0002831273686
-0.0001104736788
0.000387995585
-0.0003615492625
0.0008575777039
-0.0006596105704
0.001053208083
-0.0009590643479
0.001072238782
-0.001236392218
0.0010001747
-0.001478112346
0.000875777024
-0.001675758028
0.0007180906089
-0.001823666477
0.0005376735844
-0.001917922411
0.0003413260302
-0.00195582797
0.0001341796742
-0.001935678925
-7.921469389e-05
-0.001856774369
-0.0002941367149
-0.001719681017
-0.0005050125721
-0.001526744972
-0.0007046473067
-0.001282967004
-0.0008831617871
-0.0009973818647
-0.001026081881
-0.000685476168
-0.001110116891
-0.0003741286968
-0.001092858024
-0.0001132193351
-0.0008866650515
-0.0003963469563
-0.0001240175462
0.000512013328
-0.0004071264148
0.00114068739
-0.0007422036538
0.001388285484
-0.001077194813
0.001407229891
-0.001385809422
0.001308788953
-0.001653620819
0.001143587107
-0.001872071004
0.0009365399364
-0.002035730097
0.0007013331832
-0.002140929827
0.0004465268599
-0.002185038648
0.0001782890538
-0.002166122148
-9.813287977e-05
-0.00208291427
-0.0003773445914
-0.001935134343
-0.0006527938416
-0.001724172966
-0.000915608827
-0.001454288921
-0.001153045186
-0.001134506496
-0.001345865345
-0.0007817778728
-0.001462844461
-0.0004270125261
-0.00144762302
-0.0001284342291
-0.001185243369
-0.000524781092
-0.0001415655148
0.0006535789453
-0.0004649153437
0.001464037799
-0.0008458657424
0.001769236099
-0.001224330906
0.001785694509
-0.00157064469
0.001655102373
-0.001869415385
0.001442357603
-0.002112278458
0.001179402741
-0.002294418662
0.0008834731929
-0.002412751429
0.0005648601848
-0.002464912774
0.0002304513054
-0.002448741983
-0.0001143035489
-0.002362180468
-0.0004639063826
-0.002203623109
-0.0008113515551
-0.001972828157
-0.001146404297
-0.001672560616
-0.001453312323
-0.001311261788
-0.001707164511
-0.0009073535961
-0.001866752659
-0.0004968146455
-0.001858162001
-0.0001487602639
-0.001533297932
-0.0006735414493
-0.0001644943038
0.0008180734616
-0.0005396019008
0.001839145665
-0.000978239926
0.002207874215
-0.001410103152
0.002217557365
-0.001801564608
0.00204656335
-0.002136504444
0.001777297585
-0.002407338559
0.001450237589
-0.002610522133
0.001086657167
-0.002744113928
0.0006984523243
-0.002806379988
0.0002927166213
-0.00279502359
-0.0001256591016
-0.002706955553
-0.000551975765
-0.002538632144
-0.0009796745028
-0.002287192077
-0.001397844126
-0.001952665985
-0.001787839982
-0.001541725062
-0.002118106168
-0.001073724769
-0.00233475415
-0.0005906911794
-0.00234119515
-0.0001761975127
-0.001947789976
-0.0008497384119
-0.0001944521928
0.001012525902
-0.0006362842809
0.002280978051
-0.001147195995
0.002718785688
-0.001643757043
0.002714118116
-0.002087905476
0.002490711702
-0.002463469953
0.00215286237
-0.002764718928
0.001751487143
-0.002990451188
0.001312389644
-0.003140755911
0.0008487577527
-0.003215132618
0.00036709205
-0.003211394787
-0.0001293958228
-0.003125219778
-0.0006381524221
-0.00295038231
-0.00115451334
-0.002680027365
-0.001668198789
-0.002309497005
-0.002158370983
-0.001841498679
-0.002586103003
-0.001294737026
-0.002881515426
-0.0007178187786
-0.002918112704
-0.0002134758209
-0.002452131854
-0.001063213994
-0.0002338169924
0.001246342984
-0.0007617559671
0.002808917354
-0.001362514782
0.00331954444
-0.00193583546
0.003287438564
-0.002439138639
0.002994015025
-0.00285764061
0.002571364771
-0.003189268594
0.002083115378
-0.003436821641
0.001559942411
-0.003603744689
0.001015680759
-0.003691699568
0.000455046568
-0.00369909959
-0.0001219954574
-0.003620322252
-0.0007169287078
-0.003445673045
-0.001329162446
-0.003162559239
-0.001951313431
-0.002758781148
-0.002562151016
-0.002229355629
-0.003115528359
-0.001588813308
-0.00352205669
-0.0008914582338
-0.003615467453
-0.000264808207
-0.003078781753
-0.001328021962
-0.0002862385663
0.001532581494
-0.0009256652394
0.003448343825
-0.001636988448
0.004030867802
-0.002298665311
0.003949115631
-0.002864515392
0.003559865311
-0.003323895803
0.003030745094
-0.003681280966
0.002440499963
-0.003945892211
0.001824553871
-0.004126383363
0.001196171555
-0.004227900207
0.00055656562
-0.004250275976
-9.962006679e-05
-0.00418682393
-0.0007803820984
-0.00402376564
-0.001492221479
-0.0037408566
-0.002234222573
-0.003314595995
-0.002988411082
-0.002726496733
-0.003703627149
-0.00198006905
-0.004268483023
-0.001130985863
-0.00446455082
-0.0003368913955
-0.003872877189
-0.001664912681
-0.0003574655428
0.001890047077
-0.001141754259
0.004232632153
-0.001986843829
0.004875957304
-0.002745180188
0.004707452027
-0.003370129428
0.004184814381
-0.003860158639
0.00352077384
-0.004230721601
0.002811062403
-0.004500810365
0.002094643708
-0.004686670118
0.001382031569
-0.004798618251
0.0006685139723
-0.004839091067
-5.914695962e-05
-0.004801060132
-0.0008184132387
-0.004666627727
-0.001626654233
-0.004406372583
-0.002494478108
-0.003981286916
-0.003413496159
-0.003351247429
-0.004333667134
-0.002496800933
-0.00512292973
-0.001463489087
-0.005497862221
-0.0004403788286
-0.004895987824
-0.002105291187
-0.0004566623035
0.002346709482
-0.001428898807
0.005204868752
-0.002430261539
0.005877319725
-0.003283863003
0.005561052951
-0.003950447376
0.004851398495
-0.004446213423
0.004016539486
-0.004804110797
0.003168959985
-0.00505717932
0.002347710958
-0.005231922427
0.001556776274
-0.005345588633
0.0007821806124
-0.005404621097
-1.14863752e-07
-0.005402980987
-0.0008200536954
-0.005319746726
-0.001709888208
-0.005116260813
-0.002697963864
-0.004734771745
-0.003794985176
-0.004103977957
-0.004964461349
-0.003163015271
-0.006063892942
-0.001922776911
-0.006738099414
-0.0005919132955
-0.006226852058
-0.002697204864
-0.0005983740011
0.002945083452
-0.001810584549
0.006417079379
-0.002980232113
0.00704696692
-0.003903845756
0.006484665951
-0.004566953898
0.005514506486
-0.005017939142
0.004467523902
-0.005316203381
0.003467225242
-0.005513452329
0.002544960555
-0.005648528557
0.001691852698
-0.005746607067
0.0008802592052
-0.005819185708
7.246416468e-05
-0.00586303347
-0.0007762055946
-0.005856990937
-0.001715930468
-0.00575617095
-0.002798783809
-0.00548470267
-0.004066454061
-0.004932614848
-0.005516549325
-0.003973769632
-0.007022737942
-0.002539919388
-0.008171949139
-0.000816224284
-0.007950549722
-0.003513429278
-0.0008047757357
0.003749859146
-0.002308457582
0.00792076115
-0.003621327835
0.008359837031
-0.004535055615
0.007398392886
-0.005096784715
0.006076234534
-0.005409950256
0.00478069041
-0.005570657111
0.0036279321
-0.005651806556
0.002626110489
-0.005703782897
0.001743829105
-0.005758172684
0.0009346494024
-0.005831047061
0.0001453393114
-0.005923694687
-0.0006835574629
-0.006019402693
-0.00162022285
-0.006074831098
-0.002743355638
-0.006004981353
-0.004136303421
-0.005663535118
-0.005857995252
-0.004837658249
-0.007848615057
-0.003312154289
-0.009697453086
-0.001145414414
-0.01011729031
-0.004658843502
-0.001105831697
0.004855690906
-0.002916315889
0.009731245176
-0.004240544391
0.009684065024
-0.004945224018
0.008103072499
-0.005213342159
0.006344352754
-0.005233069676
0.004800417946
-0.005141109137
0.003535972468
-0.005024774378
0.002509775777
-0.004937847194
0.001656901862
-0.004911596632
0.0009083995662
-0.004963112361
0.0001968556366
-0.005098842514
-0.0005478272559
-0.005312579493
-0.001406486761
-0.005575695472
-0.002480240238
-0.005816435154
-0.003895562656
-0.005877197718
-0.00579723261
-0.005460742509
-0.008265072636
-0.004125683516
-0.0110325116
-0.001604419791
-0.01263855327
-0.006263263863
-0.001532585251
0.006388276283
-0.003501873602
0.0117005328
-0.004419412898
0.01060160393
-0.004479221977
0.008162882239
-0.004122942906
0.005988074459
-0.003630282626
0.004307757661
-0.00314987905
0.003055568608
-0.00275233354
0.002112229745
-0.002474578889
0.0013791475
-0.002333609929
0.0007674311953
-0.002340328554
0.0002035738087
-0.002505399825
-0.000382756345
-0.002839507548
-0.001072378239
-0.0033447499
-0.001974997359
-0.00400090206
-0.003239410574
-0.004701867225
-0.005096267161
-0.00513460427
-0.007832336005
-0.004593529114
-0.01157358629
-0.002153186468
-0.01507889832
-0.008416449481
-0.002123276801
0.008511553221
-0.003484326485
0.01306158253
-0.002828932747
0.009946210075
-0.001445250011
0.006779200253
-4.114793193e-05
0.004583973117
0.001168116403
0.003098493295
0.002126485578
0.002097198632
0.002829919657
0.001408795219
0.003302994079
0.0009060729746
0.00356157513
0.0005088496818
0.003608827562
0.0001563201978
0.003431206871
-0.0002051364635
0.002994093232
-0.0006352641464
0.002235510745
-0.001216414778
0.001091708485
-0.002095608922
-0.0004825299724
-0.00352202749
-0.0023683069
-0.005946558179
-0.003766606195
-0.0101752882
-0.002592781985
-0.01625272138
-0.01100923118
-0.002745651869
0.01125720523
0.0003460650395
0.009969866234
0.00475026159
0.005542013997
0.008069555847
0.003459906139
0.01048582857
0.002167700747
0.01222134553
0.001362975825
0.01345250483
0.0008660387407
0.01430641187
0.0005548881563
0.01486250144
0.0003499832623
0.01516799408
0.0002033567126
0.01523938211
8.493217552e-05
0.01506121555
-2.696954959e-05
0.01457908105
-0.0001531293719
0.01368524439
-0.0003225783722
0.0121820853
-0.0005924502805
0.009759319833
-0.001099260606
0.006004272423
-0.002191510455
0.0007667649536
-0.00493778025
-0.003034949725
-0.01245100709
-0.01404418078
0.01125720493
0.02122707191
0.02676908655
0.03022899284
0.0323966932
0.03375966859
0.03462570713
0.03518059499
0.03553057771
0.03573393406
0.03581886631
0.03579189683
0.03563876735
0.03531618938
0.03472373916
0.03362447825
0.03143296783
0.02649518788
0.01404418084
)
;

boundaryField
{
    movingWall
    {
        type            calculated;
        value           uniform 0;
    }
    fixedWalls
    {
        type            calculated;
        value           uniform 0;
    }
    frontAndBack
    {
        type            empty;
    }
}


// ************************************************************************* //
