/*--------------------------------*- C++ -*----------------------------------*\
  =========                 |
  \\      /  F ield         | OpenFOAM: The Open Source CFD Toolbox
   \\    /   O peration     | Website:  https://openfoam.org
    \\  /    A nd           | Version:  13
     \\/     M anipulation  |
\*---------------------------------------------------------------------------*/
FoamFile
{
    format      ascii;
    class       surfaceScalarField;
    location    "3";
    object      phi_0;
}
// * * * * * * * * * * * * * * * * * * * * * * * * * * * * * * * * * * * * * //

dimensions      [0 3 -1 0 0 0 0];

internalField   nonuniform List<scalar> 
760
(
-1.363984922e-05
1.364029451e-05
-5.918163818e-05
4.554178475e-05
-0.0001246898422
6.550816325e-05
-0.0001978664139
7.31764481e-05
-0.0002703877771
7.252122467e-05
-0.0003365424552
6.615456547e-05
-0.0003923154808
5.577293791e-05
-0.0004346839576
4.236841028e-05
-0.0004612256369
2.654168489e-05
-0.0004699887561
8.763106986e-06
-0.0004596153844
-1.037334314e-05
-0.0004296125487
-3.000275555e-05
-0.0003808617378
-4.875072448e-05
-0.0003160981297
-6.476349676e-05
-0.0002403074467
-7.579054118e-05
-0.0001609054134
-7.940193875e-05
-8.748098779e-05
-7.342443282e-05
-3.096127292e-05
-5.651976613e-05
-1.243247492e-06
-2.971801672e-05
-1.243157031e-06
-5.054857578e-05
6.418887535e-05
-0.0001743088119
0.0001693020663
-0.0003431827325
0.0002343822053
-0.000530984562
0.0002609783026
-0.0007178169923
0.0002593536001
-0.0008890497859
0.0002373872846
-0.001033936799
0.0002006598914
-0.001144343007
0.000152774482
-0.001213879501
9.607802881e-05
-0.001237587977
3.247133465e-05
-0.001212189711
-3.577192327e-05
-0.001136766208
-0.000105426532
-0.001013834182
-0.0001716829085
-0.0008504619867
-0.0002281357629
-0.0006591699163
-0.0002670826746
-0.0004580940856
-0.0002804778419
-0.0002699143529
-0.0002616041649
-0.0001188710869
-0.000207562923
-2.601368133e-05
-0.0001225752482
-2.72567083e-05
-8.139955082e-05
0.0001455883978
-0.000271915406
0.0003598177446
-0.0005264901133
0.0004889567948
-0.000808755412
0.000543243487
-0.001090470728
0.0005410688081
-0.001350136341
0.0004970528095
-0.001571445115
0.0004219686579
-0.0017417557
0.0003230850845
-0.001851012969
0.0002053353486
-0.00189135538
7.28137877e-05
-0.001857489369
-6.963783278e-05
-0.001747708525
-0.0002152072407
-0.001565518308
-0.0003538730028
-0.001321282706
-0.0004723712861
-0.001033499136
-0.000554866222
-0.0007289301216
-0.0005850468266
-0.0004408024902
-0.0005497317111
-0.0002044871871
-0.0004438780978
-5.110788425e-05
-0.0002759543434
-7.836455215e-05
-0.0001067752343
0.0002523637233
-0.0003552321836
0.0006082746818
-0.0006860134228
0.0008197379753
-0.00105296302
0.0009101930301
-0.001420625124
0.0009087308329
-0.001761925012
0.0008383525799
-0.002056004175
0.0007160477127
-0.002286279697
0.0005533604927
-0.002439100668
0.0003581562163
-0.002503279561
0.00013699255
-0.002470615377
-0.000102302067
-0.002337269126
-0.0003485534489
-0.002106128033
-0.0005850140205
-0.001789202816
-0.0007892964414
-0.00140968937
-0.0009343796168
-0.001002539588
-0.0009921964968
-0.0006123609341
-0.0009399101894
-0.0002878631762
-0.0007683757141
-7.35739611e-05
-0.0004902434203
-0.0001519385653
-0.0001299079635
0.0003822716898
-0.0004321460798
0.0009105128194
-0.0008350867092
0.001222678534
-0.001283346024
0.00135845229
-0.001735090745
0.001360475547
-0.002158661939
0.001261923786
-0.002529496734
0.001086882515
-0.002827509141
0.0008513728766
-0.003035292076
0.0005659391322
-0.003137453458
0.00023915392
-0.003121264522
-0.0001184909599
-0.002978377907
-0.0004914400016
-0.002708344333
-0.0008550475634
-0.00232223268
-0.001175408089
-0.001846321633
-0.001410290588
-0.001324068404
-0.001514449559
-0.0008143879335
-0.001449590524
-0.0003845782212
-0.001198185362
-9.840342646e-05
-0.0007764181975
-0.000250341993
-0.0001528634759
0.0005351351234
-0.0005086567899
0.001266306153
-0.0009839413997
0.001697963103
-0.001514844178
0.001889355003
-0.002054069643
0.001899700952
-0.002566421901
0.001774275982
-0.003024568505
0.001545029056
-0.003405430394
0.001232234726
-0.003687632057
0.0008481407888
-0.003850384755
0.0004019066438
-0.003874246474
-9.462921293e-05
-0.003742744007
-0.0006229424689
-0.003447965173
-0.001149826449
-0.002995809522
-0.001627563751
-0.002412707432
-0.001993392583
-0.001750645653
-0.002176511227
-0.00108717514
-0.002113061049
-0.0005167500538
-0.001768610452
-0.0001327171079
-0.001160451162
-0.0003830589957
-0.0001770670664
0.000712202169
-0.0005886381268
0.001677877267
-0.001139176361
0.002248501354
-0.001756880429
0.00250705905
-0.002390065418
0.002532885928
-0.003001342856
0.002385553394
-0.003561906621
0.002105592759
-0.00404655883
0.001716886887
-0.004430016892
0.001231598811
-0.004684829039
0.0006567187964
-0.004783102302
3.644004661e-06
-0.004694220581
-0.0007118242994
-0.004397859981
-0.001446187141
-0.003888057012
-0.002137366707
-0.003185862846
-0.002695586641
-0.002349904617
-0.003012469439
-0.001480894632
-0.002982071109
-0.0007126534235
-0.002536851646
-0.0001854288378
-0.001687675668
-0.0005684877634
-0.0002032032127
0.0009154053682
-0.0006738653631
0.002148539467
-0.001303448219
0.002878084252
-0.002012536521
0.003216147328
-0.002746296256
0.003266645658
-0.003466906178
0.003106163296
-0.004145963646
0.00278465016
-0.004757730606
0.002328653783
-0.005273829396
0.001747697517
-0.005659979732
0.001042869107
-0.005873730613
0.0002173948022
-0.005871992001
-0.0007135630374
-0.005611112075
-0.0017070671
-0.005064561766
-0.002683916911
-0.004238821842
-0.003521326448
-0.003193066432
-0.00405822488
-0.002053143212
-0.004121994316
-0.001006874554
-0.003583120209
-0.0002678903582
-0.002426659699
-0.0008363780732
-0.0002315380452
0.001146943438
-0.0007645053095
0.002681506779
-0.001475762518
0.003589341553
-0.002278227509
0.004018612294
-0.003115237032
0.004103655138
-0.003950649464
0.003941575659
-0.004758890884
0.00359289149
-0.00551600674
0.003085769563
-0.006192316682
0.002424007377
-0.00674711775
0.001597670134
-0.007126002974
0.0005962800086
-0.007263748568
-0.0005758174081
-0.007090226297
-0.001880589205
-0.006547614448
-0.003226528555
-0.005614380602
-0.004454560252
-0.004337020674
-0.005335584882
-0.002860602636
-0.005598412296
-0.001438848013
-0.00500487476
-0.0003945433671
-0.003470964377
-0.001230921597
-0.0002624800144
0.001409423522
-0.0008601782618
0.003279205041
-0.00165261677
0.004381780168
-0.002544378021
0.004910373527
-0.003478208042
0.005037485085
-0.004421921942
0.004885289446
-0.005355580554
0.004526550022
-0.006260092439
0.003990281415
-0.007107645469
0.003271560412
-0.0078541926
0.002344217261
-0.008434703329
0.00117679077
-0.008763552033
-0.0002469685608
-0.008740240635
-0.001903900379
-0.00826744115
-0.003699327935
-0.007280023588
-0.005441977931
-0.005789734426
-0.006825874095
-0.003939667919
-0.007448478765
-0.002047206111
-0.006897336689
-0.0005832369569
-0.004934933657
-0.00181415855
-0.0002975572868
0.001706980906
-0.0009618996443
0.003943547369
-0.001830367701
0.005250248285
-0.002797593737
0.005877599547
-0.003806739836
0.006046631126
-0.004831711991
0.005910261497
-0.005860922228
0.005555760214
-0.006883521478
0.005012880641
-0.007877977147
0.00426601615
-0.008802642153
0.003268882286
-0.009588756692
0.00196290532
-0.01013717064
0.0003014454633
-0.01032285606
-0.001718214922
-0.01000771248
-0.004014471626
-0.009070388499
-0.00637930201
-0.007458873784
-0.00843738876
-0.0052717808
-0.009635571706
-0.002856333556
-0.009312783923
-0.0008545125778
-0.006936754651
-0.002668670971
-0.0003411620263
0.002048143025
-0.001075358039
0.004677743326
-0.00200926889
0.00618415916
-0.003024934732
0.006893265377
-0.004066964859
0.007088661259
-0.005117291282
0.006960587874
-0.006174894741
0.006613363632
-0.007240255302
0.006078241115
-0.008303234321
0.005328995137
-0.00933293108
0.004298579035
-0.01026908345
0.002899057735
-0.01101561184
0.00104797395
-0.01143881234
-0.001295014378
-0.01137315267
-0.004080131328
-0.0106397129
-0.007112741734
-0.009095645951
-0.009981455573
-0.00673388519
-0.01199733258
-0.003850145911
-0.01219652322
-0.001227866535
-0.009559033924
-0.003896537653
-0.0004036149089
0.002451758024
-0.001215922138
0.005490050546
-0.002199034461
0.007167271537
-0.003219711016
0.007913941897
-0.004226488271
0.008095438506
-0.005211877759
0.007945977353
-0.006187331172
0.007588817007
-0.007167096613
0.007058006491
-0.008157373341
0.006319271791
-0.009147549844
0.005288755514
-0.01010174748
0.00385325541
-0.01094982995
0.0018960565
-0.01157678197
-0.0006680623599
-0.01182090933
-0.003836004007
-0.01146439735
-0.007469253481
-0.01026479883
-0.01118105414
-0.008047982254
-0.01421414931
-0.004930700535
-0.01531380511
-0.001711157364
-0.0127785771
-0.005607695075
-0.0005063105354
0.002958068634
-0.00141517977
0.006398919791
-0.00242399947
0.008176091305
-0.003385148115
0.008875090474
-0.004258699312
0.008968989646
-0.005053316225
0.008740594287
-0.005795857454
0.008331358291
-0.006516455481
0.007778604552
-0.007241360289
0.007044176523
-0.007988024415
0.006035419573
-0.008759147053
0.004624378099
-0.009534013212
0.002670922715
-0.01024483419
4.275855075e-05
-0.01078344765
-0.003297390526
-0.0109338064
-0.007318894735
-0.01038340564
-0.01173145511
-0.008763360316
-0.01583419457
-0.005872073035
-0.01820509242
-0.002279316329
-0.01637133398
-0.007887011101
-0.0006905062382
0.003648574931
-0.001726704943
0.007435118432
-0.002720190308
0.009169576714
-0.003523115438
0.009678015599
-0.004127021469
0.009572895719
-0.004569390387
0.00918296325
-0.004898735776
0.008660703762
-0.00516372624
0.008043595096
-0.005412128515
0.007292578791
-0.005691768374
0.006315059402
-0.006049423398
0.004982033111
-0.006523969048
0.003145468276
-0.007139628558
0.0006584180713
-0.007848116612
-0.002588902371
-0.008519864835
-0.006647146584
-0.008846343665
-0.01140497633
-0.008307326207
-0.01637321181
-0.006296969994
-0.02021544868
-0.002842996864
-0.01982530734
-0.01073000817
-0.001026074847
0.004674649806
-0.002217489235
0.008626532669
-0.00309882385
0.0100509114
-0.003572369053
0.0101515609
-0.003705169943
0.009705696735
-0.003588013079
0.009065806509
-0.003302132772
0.00837482354
-0.0029180089
0.007659471243
-0.002503439565
0.006878009449
-0.00213192829
0.005943548156
-0.00188791589
0.004738020647
-0.001866295967
0.003123848307
-0.002164565309
0.0009566874202
-0.002850566308
-0.001902901298
-0.003918798745
-0.005578914364
-0.00517624544
-0.01014752976
-0.006089259494
-0.01546019778
-0.005688876032
-0.02061583213
-0.003189330881
-0.02232485232
-0.0139193389
-0.001612780938
0.006287430784
-0.002880757526
0.009894509177
-0.003368435736
0.01053858967
-0.003167840078
0.009950965385
-0.002502376949
0.009040233783
-0.001548215127
0.008111644849
-0.0004271113859
0.007253719822
0.0007718115922
0.006460548193
0.00197001888
0.005679802179
0.003082284541
0.004831282552
0.004004938545
0.003815366726
0.00460988941
0.002518897397
0.0047446285
0.0008219483525
0.004248909828
-0.001407182652
0.002984462508
-0.00431446706
0.0009394350118
-0.008102502184
-0.001537530553
-0.0129832323
-0.003393034829
-0.01876032787
-0.002926881999
-0.02279100541
-0.01684622088
-0.002407611619
0.00869504247
-0.003193640874
0.01068053842
-0.002489652125
0.009834601042
-0.0009241682173
0.008385481585
0.001036232229
0.007079833446
0.003145158916
0.00600271826
0.005272851795
0.005126026957
0.007343207037
0.004390192922
0.009295104492
0.003727904739
0.01105797714
0.00306840989
0.01253616398
0.002337179675
0.01359907545
0.001455985776
0.01407472843
0.000346295416
0.013761072
-0.001093526398
0.01241770489
-0.002971099806
0.009819364029
-0.005504161567
0.005929559737
-0.009093428131
0.001470763878
-0.01430153197
-0.001335368948
-0.01998487265
-0.01818158989
-0.002091714684
0.0107867572
-2.144810111e-05
0.00861027192
0.003675765641
0.006137387338
0.007409461008
0.004651786207
0.01091847507
0.003570819374
0.01412121048
0.002799982912
0.01700769966
0.002239537876
0.01959019289
0.001807699771
0.02187144312
0.001446654524
0.02382811251
0.00111174044
0.02540088423
0.0007644079413
0.02648546447
0.0003714056116
0.02693040997
-9.8650079e-05
0.02655003243
-0.0007131491835
0.02507569764
-0.001496764558
0.02216043425
-0.002588898444
0.01737864692
-0.004311640529
0.01041598817
-0.007338873196
0.002763602709
-0.01233248725
-0.01541798734
0.01078675728
0.01939702923
0.02553441658
0.03018620281
0.03375702222
0.03655700518
0.03879654301
0.04060424263
0.04205089714
0.04316263755
0.04392704534
0.04429845094
0.04419980094
0.04348665147
0.04198988707
0.0394009883
0.03508934779
0.02775047438
0.01541798737
)
;

boundaryField
{
    movingWall
    {
        type            calculated;
        value           uniform 0;
    }
    fixedWalls
    {
        type            calculated;
        value           uniform 0;
    }
    frontAndBack
    {
        type            empty;
    }
}


// ************************************************************************* //
