/*--------------------------------*- C++ -*----------------------------------*\
  =========                 |
  \\      /  F ield         | OpenFOAM: The Open Source CFD Toolbox
   \\    /   O peration     | Website:  https://openfoam.org
    \\  /    A nd           | Version:  13
     \\/     M anipulation  |
\*---------------------------------------------------------------------------*/
FoamFile
{
    format      ascii;
    class       volVectorField;
    location    "3";
    object      U;
}
// * * * * * * * * * * * * * * * * * * * * * * * * * * * * * * * * * * * * * //

dimensions      [0 1 -1 0 0 0 0];

internalField   nonuniform List<vector> 
400
(
(-0.0001684503326 0.000168308322 0)
(-0.0009461451699 0.0004557656993 0)
(-0.002417025081 0.0006439545562 0)
(-0.004221147492 0.0007287609184 0)
(-0.006088106267 0.0007241778496 0)
(-0.007832833184 0.0006616963665 0)
(-0.009349322819 0.0005606492199 0)
(-0.01056931993 0.0004327693323 0)
(-0.01144484179 0.0002853588257 0)
(-0.01194038843 0.0001236974517 0)
(-0.01203057407 -4.731952105e-05 0)
(-0.01170073475 -0.0002220948186 0)
(-0.01094944862 -0.0003934565003 0)
(-0.009792785781 -0.0005517407465 0)
(-0.008270905112 -0.0006836315358 0)
(-0.006458706134 -0.0007706144766 0)
(-0.004483654829 -0.0007872033267 0)
(-0.002563108353 -0.000698403951 0)
(-0.001001169854 -0.000489162263 0)
(-0.0001813236245 -0.0001761949775 0)
(-0.0004703515961 0.0009411230382 0)
(-0.001881567326 0.001846459436 0)
(-0.005089359484 0.00293347599 0)
(-0.008906167311 0.003351227058 0)
(-0.01292061544 0.003323211585 0)
(-0.01671712879 0.003027991504 0)
(-0.02004857682 0.002565817484 0)
(-0.02274973977 0.00198973546 0)
(-0.02470323312 0.001329195937 0)
(-0.02582153959 0.0006044642932 0)
(-0.02604124291 -0.0001651725784 0)
(-0.02532472139 -0.0009563940799 0)
(-0.02366691484 -0.001738260986 0)
(-0.02110682572 -0.002467945873 0)
(-0.01774464886 -0.003084921717 0)
(-0.01376701123 -0.003501118197 0)
(-0.009481114795 -0.003585031979 0)
(-0.005387746473 -0.00314159052 0)
(-0.001976471671 -0.001955316653 0)
(-0.0004985944714 -0.0009760438353 0)
(-0.0007140954358 0.002463437713 0)
(-0.003177705798 0.005077406404 0)
(-0.00803612761 0.007509995909 0)
(-0.0134600058 0.00841656438 0)
(-0.01901633831 0.008297848767 0)
(-0.0242065839 0.007535389218 0)
(-0.02872440796 0.006357268718 0)
(-0.03235948998 0.004892774204 0)
(-0.03496261847 0.003218920296 0)
(-0.03642510479 0.001390645629 0)
(-0.03667104908 -0.0005407750891 0)
(-0.03565854086 -0.002515750841 0)
(-0.03338692845 -0.004456699945 0)
(-0.02991013964 -0.00625786978 0)
(-0.02535731823 -0.007772018397 0)
(-0.0199620227 -0.008790590879 0)
(-0.01409826457 -0.009014693027 0)
(-0.008361909349 -0.008025124406 0)
(-0.00327796518 -0.005341661338 0)
(-0.0007453562034 -0.002539567552 0)
(-0.0008997931799 0.004499921568 0)
(-0.004028725307 0.009295162928 0)
(-0.01004324315 0.01313011756 0)
(-0.01659969409 0.01448961041 0)
(-0.02322920699 0.01419515722 0)
(-0.02937621232 0.01284799523 0)
(-0.03470395413 0.01081251618 0)
(-0.03898118942 0.008300145418 0)
(-0.04204378559 0.00543989184 0)
(-0.04377139647 0.002324639223 0)
(-0.04407823793 -0.0009598545818 0)
(-0.0429135665 -0.004315110987 0)
(-0.04026973768 -0.007613053607 0)
(-0.03619819781 -0.01067861192 0)
(-0.03083452939 -0.01326790998 0)
(-0.02443402979 -0.01503787613 0)
(-0.01741478555 -0.015503955 0)
(-0.01045625997 -0.01399717705 0)
(-0.004150660883 -0.009724942522 0)
(-0.0009404113463 -0.004618872595 0)
(-0.001052538503 0.006914766695 0)
(-0.004689121926 0.01436751196 0)
(-0.01166813432 0.01973966009 0)
(-0.0191940601 0.0215441211 0)
(-0.02674729595 0.02099463299 0)
(-0.03371586541 0.01894738871 0)
(-0.03974150557 0.01591907868 0)
(-0.04458322457 0.0122104436 0)
(-0.04807087219 0.008005093854 0)
(-0.05007696999 0.00343378741 0)
(-0.05050476514 -0.001384660854 0)
(-0.04928775397 -0.006314002279 0)
(-0.04639877038 -0.01117512193 0)
(-0.04186975711 -0.01571848197 0)
(-0.03582429294 -0.01959114609 0)
(-0.0285247244 -0.02229302345 0)
(-0.0204302661 -0.02311833239 0)
(-0.01232076412 -0.02109446241 0)
(-0.004892038562 -0.01503629457 0)
(-0.001116846512 -0.007096262077 0)
(-0.001208294663 0.00966802126 0)
(-0.005351736639 0.02019090654 0)
(-0.01331232863 0.02726385014 0)
(-0.02183968766 0.02952014402 0)
(-0.03035101624 0.02864272574 0)
(-0.0381719113 0.02578816014 0)
(-0.04492565385 0.02164701907 0)
(-0.05036830273 0.01661718119 0)
(-0.05433015875 0.0109369216 0)
(-0.05667983563 0.004770428596 0)
(-0.05730780179 -0.001737202014 0)
(-0.05612411577 -0.008419055503 0)
(-0.0530681496 -0.01504959386 0)
(-0.04813321177 -0.0213027322 0)
(-0.04141025695 -0.0267025497 0)
(-0.03315318574 -0.03056062007 0)
(-0.02386175913 -0.031896392 0)
(-0.01444100604 -0.02935551769 0)
(-0.005731792689 -0.02126538646 0)
(-0.001319207061 -0.009965155909 0)
(-0.001391469912 0.01280550925 0)
(-0.006135746717 0.02683527048 0)
(-0.01523280665 0.03580201185 0)
(-0.02491404256 0.03852028401 0)
(-0.03452051567 0.03723187775 0)
(-0.04330855372 0.03345059726 0)
(-0.05088768486 0.02806908901 0)
(-0.05701987072 0.02159213485 0)
(-0.06154446194 0.01431127739 0)
(-0.06433150022 0.006415841873 0)
(-0.06525846934 -0.001935248956 0)
(-0.06420477428 -0.0105580912 0)
(-0.06106059642 -0.01919221434 0)
(-0.05575635004 -0.02743766173 0)
(-0.04832107705 -0.03468109023 0)
(-0.03897368592 -0.04000430369 0)
(-0.028244059 -0.04207547164 0)
(-0.01718668237 -0.03904616103 0)
(-0.006840255981 -0.02862739247 0)
(-0.001582956775 -0.01332364389 0)
(-0.00162131842 0.01642327283 0)
(-0.007124176351 0.03446927931 0)
(-0.01760895654 0.04554841377 0)
(-0.02867250197 0.04872484934 0)
(-0.03956495497 0.04691379659 0)
(-0.04946852618 0.0420586243 0)
(-0.05798979207 0.03528981814 0)
(-0.06491174295 0.0272309273 0)
(-0.07009727139 0.01822374056 0)
(-0.07342838659 0.008469980045 0)
(-0.07477338976 -0.001876886567 0)
(-0.07397616236 -0.01263833675 0)
(-0.07086081848 -0.02354112839 0)
(-0.06526363811 -0.0341237317 0)
(-0.05710831356 -0.04362544073 0)
(-0.0465312306 -0.05084937621 0)
(-0.03405924411 -0.05400822196 0)
(-0.02090953008 -0.05059568674 0)
(-0.008384869443 -0.03751022293 0)
(-0.001943880364 -0.01734904343 0)
(-0.001916882425 0.02065866905 0)
(-0.008392905791 0.04333712255 0)
(-0.02059573353 0.05676586734 0)
(-0.03331996881 0.06036038021 0)
(-0.04570905037 0.05786339193 0)
(-0.05687167183 0.05174212766 0)
(-0.06643244555 0.04341004866 0)
(-0.07422075165 0.03362331454 0)
(-0.08014672573 0.02276871777 0)
(-0.0841230941 0.01104233585 0)
(-0.08601962251 -0.001435502947 0)
(-0.08564552165 -0.01452505686 0)
(-0.0827437502 -0.02797876434 0)
(-0.07701885028 -0.04130320394 0)
(-0.06822825246 -0.0535946206 0)
(-0.05634683115 -0.06332908373 0)
(-0.04182446581 -0.0681301003 0)
(-0.02602226807 -0.06459451318 0)
(-0.01057983368 -0.04849337409 0)
(-0.00244556679 -0.02230923044 0)
(-0.002301855114 0.02569534454 0)
(-0.01003233699 0.05375334063 0)
(-0.0243596845 0.06977053861 0)
(-0.03905251939 0.07367340091 0)
(-0.05313404558 0.07024436244 0)
(-0.0656513243 0.06259867755 0)
(-0.07628401105 0.05248874531 0)
(-0.08494768014 0.04081856989 0)
(-0.09163582349 0.02801165685 0)
(-0.09632188363 0.01423426539 0)
(-0.09889752225 -0.0004640444198 0)
(-0.09914918832 -0.01602800964 0)
(-0.09673185314 -0.03229728088 0)
(-0.09117932642 -0.0488036831 0)
(-0.08200606404 -0.06453498437 0)
(-0.06890685301 -0.07761058099 0)
(-0.0521153778 -0.08491033809 0)
(-0.03304694075 -0.08179624622 0)
(-0.01373142129 -0.06240084902 0)
(-0.003145736614 -0.02859961675 0)
(-0.002810279949 0.031780127 0)
(-0.01216643049 0.06611073717 0)
(-0.02910256 0.08492070502 0)
(-0.04607205973 0.08889947785 0)
(-0.06197465057 0.08416491088 0)
(-0.07583001866 0.07464255968 0)
(-0.08743448208 0.06249061695 0)
(-0.09684899457 0.04877556753 0)
(-0.1042017289 0.03394485311 0)
(-0.1095707359 0.01810422825 0)
(-0.112901514 0.001183935906 0)
(-0.1139876487 -0.016903124 0)
(-0.112408227 -0.03617302776 0)
(-0.1074972028 -0.05627759038 0)
(-0.09844582229 -0.07618365598 0)
(-0.08451181816 -0.09367733191 0)
(-0.06548351538 -0.1047519981 0)
(-0.04260817518 -0.1030916209 0)
(-0.01827738604 -0.08037465441 0)
(-0.004119884355 -0.03680669658 0)
(-0.003494785469 0.03925325308 0)
(-0.01497331063 0.08089412425 0)
(-0.03507202312 0.1025951495 0)
(-0.0545653918 0.1062093892 0)
(-0.07225533343 0.09960438613 0)
(-0.08721165898 0.08772351274 0)
(-0.09944703153 0.0732046581 0)
(-0.1092519941 0.05728548305 0)
(-0.1169570345 0.04041686659 0)
(-0.1228034174 0.02260766076 0)
(-0.1268333451 0.0036196096 0)
(-0.1289002458 -0.01687913537 0)
(-0.1285505171 -0.03916081326 0)
(-0.1249190519 -0.06314482495 0)
(-0.1168197092 -0.087944223 0)
(-0.1029013136 -0.1111413035 0)
(-0.08218070199 -0.1277871343 0)
(-0.05530568592 -0.1293864704 0)
(-0.0248015163 -0.1039293931 0)
(-0.005458244378 -0.04779912932 0)
(-0.00444022442 0.04859649891 0)
(-0.01870880505 0.09868842029 0)
(-0.04254615522 0.1231359647 0)
(-0.06461287067 0.1256003985 0)
(-0.08371070932 0.116279986 0)
(-0.09912112323 0.1013899981 0)
(-0.1112322021 0.08411598919 0)
(-0.1206785849 0.06585648654 0)
(-0.1280723914 0.04702860623 0)
(-0.1338769092 0.02749719255 0)
(-0.1383140423 0.006798868636 0)
(-0.1413446668 -0.01572883947 0)
(-0.1425396108 -0.04072402191 0)
(-0.1409276872 -0.06855658325 0)
(-0.134957882 -0.09874546481 0)
(-0.122544316 -0.1289680015 0)
(-0.1015516396 -0.1534975431 0)
(-0.07133489096 -0.1612652631 0)
(-0.03396632893 -0.1348893113 0)
(-0.007246855439 -0.06283755092 0)
(-0.005787171623 0.06050550312 0)
(-0.02372834038 0.1201532166 0)
(-0.0517487999 0.1467001775 0)
(-0.07593351987 0.1466682442 0)
(-0.09535550461 0.1333980129 0)
(-0.109835239 0.1146599002 0)
(-0.1203858632 0.094213861 0)
(-0.1281306394 0.07356028566 0)
(-0.1340412354 0.05301029174 0)
(-0.1388526945 0.03222083274 0)
(-0.1430137536 0.01044742042 0)
(-0.1466604252 -0.01335637454 0)
(-0.1494965513 -0.04030398269 0)
(-0.1505961266 -0.07140318759 0)
(-0.1481957839 -0.1069150018 0)
(-0.1395074466 -0.1451265161 0)
(-0.120942047 -0.1800998635 0)
(-0.08965591405 -0.1982624264 0)
(-0.04623053727 -0.1749896041 0)
(-0.009510969186 -0.0836607526 0)
(-0.007766881319 0.07600192493 0)
(-0.03048086874 0.1459220747 0)
(-0.06257454399 0.1729040015 0)
(-0.08723060825 0.1681318621 0)
(-0.1044968249 0.1491990626 0)
(-0.1153847142 0.1256608158 0)
(-0.1218960989 0.1017410083 0)
(-0.1257831968 0.07887148454 0)
(-0.1284041671 0.05711955625 0)
(-0.1307492814 0.03584783078 0)
(-0.1335003302 0.01398936745 0)
(-0.1369933149 -0.009886649331 0)
(-0.1411716812 -0.03742222022 0)
(-0.1453994556 -0.07038820275 0)
(-0.1480370993 -0.1101260099 0)
(-0.1459277167 -0.1562381301 0)
(-0.1340531799 -0.2037057175 0)
(-0.106495196 -0.2375546401 0)
(-0.06107708468 -0.22474888 0)
(-0.01205707797 -0.11242417 0)
(-0.01070483988 0.09656586929 0)
(-0.03937948491 0.1761544415 0)
(-0.0737790029 0.1999058494 0)
(-0.09452353846 0.1868498331 0)
(-0.1045056791 0.1602003178 0)
(-0.107129212 0.1311770477 0)
(-0.1057604285 0.1039860702 0)
(-0.1027625768 0.07961709474 0)
(-0.0997374007 0.0576673586 0)
(-0.09777077368 0.03711037001 0)
(-0.09763399097 0.01655886271 0)
(-0.09982713161 -0.0057103819 0)
(-0.1046194609 -0.03179716576 0)
(-0.1119119741 -0.06419460391 0)
(-0.1207239926 -0.1055133672 0)
(-0.1282976294 -0.1574005008 0)
(-0.1288822648 -0.217443176 0)
(-0.1131002962 -0.2720370698 0)
(-0.07526331331 -0.2810925645 0)
(-0.01399160927 -0.1512232556 0)
(-0.0151560537 0.1250261295 0)
(-0.050115576 0.2102691777 0)
(-0.08018290259 0.2226713369 0)
(-0.08663873662 0.1962635242 0)
(-0.07987324993 0.1603906053 0)
(-0.06717148238 0.126511837 0)
(-0.05302503569 0.09749438733 0)
(-0.03981425838 0.07332249631 0)
(-0.02886647599 0.05287022009 0)
(-0.02095086902 0.03469302755 0)
(-0.01663125364 0.01719397215 0)
(-0.01641101947 -0.001449083507 0)
(-0.02086584836 -0.02349429896 0)
(-0.0306302886 -0.05183759949 0)
(-0.04601108263 -0.09016977946 0)
(-0.0658823194 -0.1425700993 0)
(-0.0855484122 -0.2111105408 0)
(-0.09293159513 -0.2883409393 0)
(-0.07958891105 -0.3338860556 0)
(-0.0123766504 -0.2011168032 0)
(-0.02066723455 0.1672659639 0)
(-0.05864090445 0.2429842522 0)
(-0.06260093033 0.2286296789 0)
(-0.03323765161 0.1847212177 0)
(0.003793116568 0.1419401567 0)
(0.03911347464 0.106864463 0)
(0.06955339406 0.07959087194 0)
(0.09448512522 0.05851712159 0)
(0.113839507 0.04184419655 0)
(0.1277887236 0.02791108757 0)
(0.1363590334 0.01517533856 0)
(0.1392746359 0.002061839257 0)
(0.1357808085 -0.01335245808 0)
(0.1244791798 -0.03368661835 0)
(0.103340094 -0.06284656199 0)
(0.07038568854 -0.1067239353 0)
(0.02586870376 -0.1728774251 0)
(-0.01867395698 -0.2658442961 0)
(-0.05518824258 -0.3607572548 0)
(0.001907749344 -0.2602619541 0)
(-0.02412412104 0.221375605 0)
(-0.02957537958 0.2474001394 0)
(0.05520602708 0.1814481081 0)
(0.1434827176 0.1310256311 0)
(0.2158188993 0.09367094793 0)
(0.2713628312 0.06669457087 0)
(0.3133727124 0.04762365679 0)
(0.3447947055 0.03402847481 0)
(0.3678535907 0.02407887984 0)
(0.3840130654 0.01639801615 0)
(0.3940382767 0.009906685566 0)
(0.3979880512 0.003661661907 0)
(0.3950874545 -0.003389795694 0)
(0.3834472422 -0.01269258784 0)
(0.35952652 -0.02671525307 0)
(0.3177224219 -0.05068287479 0)
(0.2495121192 -0.09609677421 0)
(0.1560203355 -0.1868651082 0)
(0.02429717109 -0.3389205202 0)
(0.0520869653 -0.2978893499 0)
(0.2465954984 0.1114648667 0)
(0.3213396102 0.1084715219 0)
(0.4607009191 0.07067250732 0)
(0.5609321003 0.04962523434 0)
(0.6272650257 0.03545083248 0)
(0.6728577502 0.02542533639 0)
(0.7046750743 0.0182556284 0)
(0.727000856 0.01311301194 0)
(0.7426246962 0.009389586452 0)
(0.7533244252 0.006639752476 0)
(0.7601557682 0.004528188632 0)
(0.7636096876 0.002790816049 0)
(0.7636486823 0.001192576269 0)
(0.7596266596 -0.0005093075203 0)
(0.7497752197 -0.002695197306 0)
(0.7306530006 -0.005867456417 0)
(0.6917967121 -0.01258031765 0)
(0.6203917555 -0.02427009208 0)
(0.461003512 -0.06926734059 0)
(0.3196389544 -0.1156370723 0)
)
;

boundaryField
{
    movingWall
    {
        type            fixedValue;
        value           uniform (1 0 0);
    }
    fixedWalls
    {
        type            fixedValue;
        value           uniform (0 0 0);
    }
    frontAndBack
    {
        type            empty;
    }
}


// ************************************************************************* //
