/*--------------------------------*- C++ -*----------------------------------*\
  =========                 |
  \\      /  F ield         | OpenFOAM: The Open Source CFD Toolbox
   \\    /   O peration     | Website:  https://openfoam.org
    \\  /    A nd           | Version:  13
     \\/     M anipulation  |
\*---------------------------------------------------------------------------*/
FoamFile
{
    format      ascii;
    class       volVectorField;
    location    "3";
    object      U;
}
// * * * * * * * * * * * * * * * * * * * * * * * * * * * * * * * * * * * * * //

dimensions      [0 1 -1 0 0 0 0];

internalField   nonuniform List<vector> 
400
(
(-2.984234222e-05 3.023155719e-05 0)
(-0.0006061115654 0.0003634169367 -8.773106911e-24)
(-0.001726270517 0.0007102104942 0)
(-0.003058924698 0.0009707779465 0)
(-0.004413409702 0.001113218808 -5.912086894e-26)
(-0.005674000061 0.001128943544 3.261019066e-24)
(-0.006764847104 0.001024765107 1.993182929e-23)
(-0.007633946908 0.0008165904404 3.72295637e-23)
(-0.008241227003 0.0005266836761 -4.818224355e-25)
(-0.008553018733 0.0001826505863 -8.359245101e-24)
(-0.008541648101 -0.0001828439617 1.104152616e-23)
(-0.008188629813 -0.0005326876699 -1.062567457e-22)
(-0.00749180788 -0.0008272671262 -1.218806982e-22)
(-0.006475063208 -0.001027782771 -1.433438559e-22)
(-0.005197586536 -0.001101756778 9.355826883e-24)
(-0.003761854275 -0.00103118739 -9.844636791e-24)
(-0.002317723524 -0.0008212602644 -6.33782296e-22)
(-0.001063296255 -0.0005044817337 0)
(-0.0001659626816 -0.0001521030915 2.334854736e-24)
(7.438825453e-05 9.720411625e-05 -2.891412552e-22)
(-0.0001956823819 0.0007312033839 7.927693227e-26)
(-0.001955550101 0.002524009216 8.855424107e-24)
(-0.004845311788 0.003982078323 6.097575984e-26)
(-0.008259960043 0.004875283187 2.989640175e-26)
(-0.01174056925 0.005209142719 -2.87160989e-25)
(-0.01499982415 0.005036138544 -1.042921769e-23)
(-0.01783520745 0.004425783623 2.518920836e-23)
(-0.02010323746 0.003452886805 -3.628173986e-23)
(-0.0216947867 0.002196633968 2.641163901e-23)
(-0.0225216912 0.0007449084681 9.527340658e-24)
(-0.02251491193 -0.0007997992266 -1.204324765e-23)
(-0.0216322158 -0.002315947394 7.282844166e-26)
(-0.0198744418 -0.003662739149 6.565866717e-23)
(-0.0173073013 -0.004687412819 -4.39887592e-24)
(-0.01408352767 -0.005241524047 9.115452546e-24)
(-0.01045957517 -0.005207969349 -3.124795093e-22)
(-0.006797495749 -0.004536449179 3.269135126e-22)
(-0.003540699642 -0.00328386734 -4.668537153e-24)
(-0.001123908939 -0.001657990726 4.7862487e-24)
(-6.341796884e-05 -0.0001853396079 0)
(-0.0002617929165 0.00217343754 -1.341605255e-25)
(-0.003057858194 0.006115880539 1.845111937e-24)
(-0.007424182116 0.00895344289 -8.560133668e-24)
(-0.01255946969 0.01053842213 8.493829623e-26)
(-0.01780427687 0.01097944407 -8.344364186e-26)
(-0.02274379394 0.01043545134 6.37049778e-25)
(-0.02707236073 0.009069451432 -2.419388737e-23)
(-0.03056605353 0.00703284699 -2.05099222e-24)
(-0.03305127383 0.004470085354 -2.768299596e-23)
(-0.03438688806 0.001533180856 0)
(-0.03446179183 -0.001600697061 0)
(-0.03320616638 -0.004714728351 5.468120422e-23)
(-0.03061620699 -0.007545097977 5.894609387e-23)
(-0.02678696423 -0.009790787651 -4.297058017e-24)
(-0.02194473805 -0.01114144246 1.475886923e-22)
(-0.01647050795 -0.01132870805 3.02988658e-22)
(-0.01089861353 -0.01019949366 2.947571785e-22)
(-0.0058722684 -0.007804267247 9.125433749e-24)
(-0.002055190557 -0.004489206444 -4.535125763e-24)
(-0.000151408966 -0.001067927261 0)
(-0.0002802968074 0.004152131221 -5.540287597e-24)
(-0.003960119208 0.01086548521 -1.61106513e-24)
(-0.009633262256 0.01538238011 8.395073648e-24)
(-0.01630482751 0.0177621019 0)
(-0.02313938128 0.01828198809 0)
(-0.02961706149 0.0172474953 0)
(-0.03534875794 0.01493861731 -8.960175275e-25)
(-0.04004265418 0.01159482638 1.60991377e-23)
(-0.04346481762 0.007429198551 0)
(-0.045416911 0.002658177217 8.061019417e-24)
(-0.04573365463 -0.002463305509 7.368506942e-25)
(-0.04429744727 -0.007612179588 -7.389154101e-25)
(-0.04107313379 -0.0123765351 0)
(-0.03615524946 -0.01626604405 1.334829074e-22)
(-0.02981564543 -0.0187517733 -1.433107996e-22)
(-0.02254193939 -0.01934994157 -1.547139594e-22)
(-0.0150419929 -0.01774788063 -2.991021828e-22)
(-0.008186001763 -0.01395771421 3.576200233e-25)
(-0.002916849163 -0.008461469858 -2.543746314e-22)
(-0.0002029442563 -0.002378968417 0)
(-0.0002779327437 0.006604278147 5.594540953e-24)
(-0.004771636345 0.01666335663 5.912829191e-25)
(-0.01167316761 0.02316786111 -5.777767852e-25)
(-0.01980739407 0.02646986683 0)
(-0.02818089737 0.02708083249 2.286236812e-25)
(-0.03618490164 0.02549057196 -2.254525999e-25)
(-0.04336367143 0.02211345384 2.972993509e-25)
(-0.04936898154 0.01727987478 -2.327987831e-23)
(-0.05390887385 0.01126501067 -9.035408668e-24)
(-0.05671838574 0.004339641553 -8.070405787e-24)
(-0.05755613482 -0.003170148428 0)
(-0.05622047863 -0.01083237876 1.698487924e-24)
(-0.0525975437 -0.01806259095 6.048591452e-23)
(-0.0467305799 -0.02413246726 -1.418849953e-22)
(-0.03889323554 -0.02821806204 9.001611693e-24)
(-0.02966104875 -0.02952402215 3.042650931e-22)
(-0.0199398814 -0.02748373245 -4.757835991e-24)
(-0.01090324394 -0.02201043765 0)
(-0.003889467518 -0.0137242656 1.153422907e-23)
(-0.0002426774376 -0.004145727742 1.872851759e-22)
(-0.0002746865781 0.009512796069 9.915692461e-23)
(-0.005573635509 0.0234950551 -5.595934584e-25)
(-0.01369509872 0.03232203443 0)
(-0.02330075807 0.03671032283 0)
(-0.03325239838 0.03747120006 -5.280519765e-23)
(-0.04287033353 0.03531798833 -4.027212369e-23)
(-0.05165082177 0.0308142128 -3.075765721e-25)
(-0.05920303737 0.02437622897 8.338968152e-24)
(-0.06518055606 0.0163223215 8.263627265e-24)
(-0.06924009421 0.006951629946 4.316086036e-24)
(-0.07103577529 -0.00336288422 -8.011846997e-24)
(-0.07022946551 -0.01409781515 -2.060583063e-23)
(-0.06655642426 -0.0244752949 -3.166548177e-24)
(-0.05992873607 -0.0334737015 -1.331221616e-22)
(-0.05054699158 -0.03986740936 0)
(-0.03903547952 -0.04239647662 -1.589955321e-22)
(-0.026527004 -0.04007229571 4.918581269e-24)
(-0.01461522237 -0.03258669279 0)
(-0.005233590734 -0.02069215645 2.466238877e-22)
(-0.0003050717886 -0.006487449782 -3.502615969e-22)
(-0.0002796652198 0.01289138578 -9.841640283e-23)
(-0.006415952694 0.03139574148 2.174808515e-22)
(-0.01579872071 0.04290241676 1.119451721e-22)
(-0.02693504329 0.04857452451 2.368766998e-24)
(-0.03855540534 0.04959369173 -4.54268695e-23)
(-0.04993269333 0.04693926146 4.238876893e-23)
(-0.06054037311 0.04133694581 -1.551023289e-24)
(-0.0699660814 0.03327561968 -2.005184927e-25)
(-0.07781899066 0.02308181293 1.207279294e-25)
(-0.08366968417 0.01103251394 -4.242581876e-24)
(-0.08704279066 -0.002509986019 7.388141454e-24)
(-0.08739576871 -0.01693697989 2.268974537e-23)
(-0.08421255592 -0.03131989544 -1.305754412e-23)
(-0.07716251301 -0.04428427764 2.040515244e-22)
(-0.06624921195 -0.05406393096 -4.459787393e-24)
(-0.05205734997 -0.0587050393 0)
(-0.03594825804 -0.05651180627 0)
(-0.02007700675 -0.04671093479 4.158119194e-24)
(-0.007281908815 -0.03012632759 -4.250268084e-24)
(-0.0004191559644 -0.009686417912 2.848437124e-23)
(-0.0002963068824 0.01677260186 0)
(-0.007322267585 0.04042645055 1.321288139e-22)
(-0.01802840588 0.05498703377 5.85753559e-23)
(-0.03076563304 0.06216511144 0)
(-0.04414736349 0.06359669769 9.592258487e-23)
(-0.05742904854 0.06057783588 0)
(-0.07009613743 0.05401084269 -6.503521939e-23)
(-0.08174788423 0.04443728074 2.502534896e-24)
(-0.09197435987 0.03214212948 0)
(-0.1002699468 0.01730760916 0)
(-0.1059697475 0.0002020247612 2.311485112e-25)
(-0.1082971188 -0.01859036439 7.837216571e-25)
(-0.1064069049 -0.03801439203 -7.813196972e-23)
(-0.09953539332 -0.05632136756 -1.588860277e-23)
(-0.08731489458 -0.07105681897 4.220333326e-24)
(-0.07012358294 -0.0792661012 -5.333371007e-24)
(-0.04947313683 -0.07809896045 5.41745357e-24)
(-0.02819475282 -0.06585759142 0)
(-0.01045551712 -0.04321666585 -1.397117795e-24)
(-0.000619426367 -0.01422759046 2.399711621e-22)
(-0.0003273984208 0.02119589942 0)
(-0.008300794297 0.05065092106 -8.926551382e-23)
(-0.020382599 0.06863980575 -4.310461591e-22)
(-0.03475543066 0.07754799072 -2.480680795e-22)
(-0.04992832866 0.0795728183 0)
(-0.0651745658 0.07639203013 2.281630763e-22)
(-0.08003503704 0.0691049576 5.733348983e-23)
(-0.09416555777 0.0582837062 -2.003612891e-24)
(-0.1071755843 0.04411008706 1.993699669e-24)
(-0.1185061401 0.02657511341 0)
(-0.1273427048 0.005730089179 6.544342051e-24)
(-0.1326091375 -0.01802935944 -1.927113407e-25)
(-0.1330176339 -0.04360600067 3.000388462e-23)
(-0.1272548311 -0.06892183286 -5.106543314e-23)
(-0.1143515867 -0.09072240436 1.06729239e-22)
(-0.09420727953 -0.1047047154 0)
(-0.06824855048 -0.1062377536 0)
(-0.03995209682 -0.09190216752 0)
(-0.01527958178 -0.06164140418 0)
(-0.0009554359685 -0.02085470528 -1.042211234e-22)
(-0.0003792398844 0.0262042572 0)
(-0.009362130286 0.06211917757 -2.45347467e-22)
(-0.02283756242 0.08387549198 6.161182819e-22)
(-0.03879539826 0.09469436431 2.387686964e-22)
(-0.05564750975 0.09747451289 0)
(-0.07272298238 0.09436091137 -2.147576731e-22)
(-0.08966659919 0.08668158381 -1.589904548e-23)
(-0.1062450162 0.07502155987 1.567987468e-22)
(-0.1221446419 0.05939521603 7.442988181e-23)
(-0.1368110984 0.03949047073 -1.51919288e-23)
(-0.149325035 0.01498287801 8.350082435e-24)
(-0.1583459805 -0.01407570572 -1.318852392e-24)
(-0.1621343718 -0.04676895386 6.964460841e-23)
(-0.1587315694 -0.08083115652 0)
(-0.146358589 -0.1122109742 -1.067805162e-22)
(-0.1240797807 -0.1349768025 -5.222401163e-24)
(-0.0927732671 -0.141983545 5.300221566e-24)
(-0.05619283668 -0.1268630122 -2.121718966e-22)
(-0.02237702036 -0.08755080391 5.275594044e-24)
(-0.001506224158 -0.03063796074 0)
(-0.0004680823798 0.03185563505 0)
(-0.010550446 0.07486591906 0)
(-0.02539164392 0.1006306777 -3.464921082e-22)
(-0.04275095557 0.1134173781 -1.277276521e-23)
(-0.06094039772 0.1170119802 1.235768768e-23)
(-0.07938309744 0.1141373909 -1.221174324e-23)
(-0.09787384082 0.1063974641 -1.180760266e-23)
(-0.1163441369 0.09438661458 -1.411131645e-22)
(-0.1346252497 0.07790361284 4.132882975e-23)
(-0.1522576023 0.05623809635 1.681246419e-23)
(-0.1683312489 0.02854155168 -1.491955361e-23)
(-0.1813721079 -0.005688787176 0)
(-0.1893202409 -0.04597999916 1.716063711e-23)
(-0.1896415371 -0.09015443456 0)
(-0.1796568274 -0.1335925752 -6.299130786e-23)
(-0.157241496 -0.1687118491 -1.676457553e-23)
(-0.1220331282 -0.1852419136 0)
(-0.07715710003 -0.1722800353 2.068372929e-22)
(-0.03240048469 -0.1233702866 -2.045622676e-22)
(-0.002404148378 -0.04504200707 7.077052634e-23)
(-0.0006324536745 0.03826056433 0)
(-0.01199742058 0.0889338967 6.592468124e-22)
(-0.02813849119 0.1187469414 -1.722413345e-23)
(-0.04654271645 0.1333091028 6.431581258e-22)
(-0.06541096032 0.1375432082 -1.680696829e-23)
(-0.08430373456 0.1348858419 1.681400407e-23)
(-0.1032051717 0.1272776525 -1.666048579e-23)
(-0.1222552416 0.1153397325 -8.553017538e-24)
(-0.1414963416 0.09864362464 -2.666355327e-22)
(-0.1606763194 0.07603697832 -4.306758555e-24)
(-0.1790736429 0.04605461588 4.183252906e-24)
(-0.1953448298 0.007467706667 1.591112912e-22)
(-0.2074155267 -0.039978409 -2.375642361e-22)
(-0.2124816553 -0.09459167866 0)
(-0.2071425023 -0.1517201659 2.538705226e-22)
(-0.1879060828 -0.2025872076 1.478160081e-23)
(-0.1524105609 -0.2337040813 1.141160705e-24)
(-0.1016788382 -0.2281077865 0)
(-0.04580747971 -0.1712511758 2.026061638e-22)
(-0.00386820817 -0.06595750224 -6.896825535e-23)
(-0.0009579307345 0.04566668544 1.117175198e-23)
(-0.01401171889 0.1044348653 -6.29230117e-22)
(-0.03137167556 0.1379714808 -8.609659768e-22)
(-0.05025289536 0.1536860544 -6.038245702e-22)
(-0.06874491284 0.1579785086 0)
(-0.08661909884 0.1551511979 2.228657295e-23)
(-0.1040901528 0.1475443221 -4.496780711e-23)
(-0.1215373784 0.1358424484 3.460360794e-23)
(-0.1392670104 0.1194306561 1.600136561e-22)
(-0.1573483185 0.09675840198 -6.182984238e-24)
(-0.1754619522 0.06576365145 0)
(-0.1927370572 0.02443345894 -1.712214584e-22)
(-0.2075396091 -0.02842231432 3.885208155e-22)
(-0.2173722075 -0.09205163976 4.831488554e-22)
(-0.2186528313 -0.1625970561 -1.900923215e-22)
(-0.2067490548 -0.2311610431 2.12955095e-22)
(-0.1768397209 -0.2819137858 -4.528046801e-24)
(-0.1261318305 -0.291212909 4.60066186e-24)
(-0.06232616059 -0.2319541754 -4.571087523e-22)
(-0.006229833392 -0.09559733832 0)
(-0.001625145395 0.05462046342 -1.433524907e-23)
(-0.01721807412 0.1216387957 -1.031783647e-21)
(-0.03570201225 0.1579416353 8.15477631e-22)
(-0.05420395673 0.1735124666 5.195726025e-22)
(-0.07077086099 0.1766931899 4.548987452e-22)
(-0.08554949675 0.1727929087 4.841352854e-22)
(-0.09906046828 0.1645853084 -2.917569464e-23)
(-0.1119553319 0.152855505 -2.333570095e-22)
(-0.1248377115 0.1368897783 1.404835628e-22)
(-0.138178834 0.1148813218 0)
(-0.1522352382 0.08433855878 0)
(-0.166921888 0.04259835572 1.72745197e-22)
(-0.181499318 -0.01247225047 9.812913083e-23)
(-0.1945062153 -0.08162186289 -9.602782487e-23)
(-0.2030639761 -0.1624819115 -3.209338174e-23)
(-0.202218141 -0.2476880796 1.59736941e-22)
(-0.1850230719 -0.3211989346 -1.060620128e-22)
(-0.1436296934 -0.3540442377 -1.958592241e-22)
(-0.08002918291 -0.3030788423 4.564829388e-22)
(-0.009895584763 -0.1360952785 -8.443133498e-22)
(-0.003012194313 0.06628756621 0)
(-0.02275346712 0.1411157475 1.701080569e-21)
(-0.04209056571 0.1781496919 0)
(-0.0588117402 0.1912963626 -1.080585251e-21)
(-0.07118359414 0.1914556644 8.47828024e-23)
(-0.0800892271 0.1850118219 -4.507795963e-22)
(-0.086514778 0.1751197452 -3.569271023e-22)
(-0.09144492194 0.1626552103 5.832669933e-22)
(-0.0957950658 0.1468942373 -1.220736727e-22)
(-0.1004468017 0.1259655883 0)
(-0.1062644866 0.09721946562 0)
(-0.1140493824 0.05763414293 3.693785804e-23)
(-0.1244639605 0.004339287078 -3.998248709e-22)
(-0.1374547889 -0.06479286382 -2.830227513e-22)
(-0.1516764102 -0.1496768832 3.564205364e-22)
(-0.1634752126 -0.2461640423 -3.793033969e-22)
(-0.1652767181 -0.341173932 -4.963493217e-24)
(-0.1442588978 -0.4044731828 2.176808977e-22)
(-0.09428322726 -0.3769659217 6.415812904e-22)
(-0.01515790398 -0.1885739483 8.427217684e-22)
(-0.005816990425 0.08284882729 0)
(-0.03240364956 0.1634573374 1.65113296e-22)
(-0.05142849282 0.1973139993 -4.166802653e-23)
(-0.06363435434 0.2044390382 6.297831806e-22)
(-0.06818566122 0.1989589038 -5.6719769e-22)
(-0.06739997478 0.1881572173 3.799205777e-23)
(-0.06300646695 0.1753213547 -1.026667569e-22)
(-0.05641462542 0.161284836 -2.446272304e-22)
(-0.04883578846 0.1453284503 1.577863183e-22)
(-0.04147895969 0.1256704269 0)
(-0.03569589993 0.09978247049 0)
(-0.03304798236 0.06466652599 -2.101105951e-22)
(-0.03531016998 0.01716697628 0)
(-0.04413358155 -0.04562381925 -4.61318787e-22)
(-0.06049905659 -0.1259669743 3.159901785e-23)
(-0.08333622972 -0.2239269357 1.938472476e-23)
(-0.1072178471 -0.3327419175 8.878605985e-23)
(-0.1163909037 -0.4275089782 9.292066619e-24)
(-0.09713450992 -0.4393196228 -6.630372222e-22)
(-0.02162429534 -0.2511067094 0)
(-0.01140344009 0.1091128029 0)
(-0.04798558997 0.1895332204 -7.649993944e-22)
(-0.06188836328 0.2129716128 -4.992905748e-22)
(-0.06326189901 0.2086781717 4.243784077e-22)
(-0.05354516153 0.1944108048 -2.152756497e-24)
(-0.03751448484 0.1775974189 -4.069588472e-23)
(-0.01785702603 0.1610144265 4.750495427e-22)
(0.003633994189 0.1450854449 -2.209117369e-23)
(0.0256112858 0.1289545166 -1.569191634e-22)
(0.04677386384 0.1109629849 2.49300326e-23)
(0.06558716532 0.08888929094 -2.737422433e-23)
(0.08010997239 0.06011185163 -3.024084639e-23)
(0.08785705966 0.02175937612 2.708267073e-22)
(0.08594827378 -0.02926400361 5.151906448e-22)
(0.07125974223 -0.09632326304 -4.423341481e-22)
(0.04156061077 -0.1832221844 -1.683025816e-22)
(-0.002873541245 -0.2914344667 1.265134617e-22)
(-0.04746354597 -0.4086023947 7.000038794e-23)
(-0.07678888123 -0.4701727654 1.838005971e-21)
(-0.02636866169 -0.3166380603 2.862134828e-21)
(-0.01974201711 0.1485954539 -4.122498101e-23)
(-0.06608619544 0.2115600442 4.148028909e-23)
(-0.05787056038 0.2131220646 9.474066307e-22)
(-0.03393540674 0.1917849562 1.151886324e-23)
(0.0008676028444 0.1675473735 0)
(0.03918917538 0.1455721751 4.023529113e-23)
(0.07811921907 0.1267882092 -2.004580231e-22)
(0.116191081 0.1106221447 -7.820890162e-23)
(0.1525105668 0.09587828681 3.081075042e-23)
(0.1861882248 0.08101457824 -1.318081971e-23)
(0.2159792511 0.06423537562 2.740662801e-23)
(0.2400712223 0.0435351256 -5.521140996e-23)
(0.2558053667 0.01672742416 -7.412652213e-23)
(0.2598821153 -0.01869028686 1.397155711e-22)
(0.2479050335 -0.06576891842 0)
(0.2152301004 -0.1298051297 1.615567271e-22)
(0.1561019236 -0.219012751 2.262921557e-22)
(0.07810858837 -0.3388570465 0)
(-0.01632757332 -0.4487880803 -3.529410856e-21)
(-0.02064369341 -0.372185778 -2.801578453e-21)
(-0.02529989297 0.2298749289 -9.370008528e-22)
(-0.03835813551 0.2259708796 -1.347806613e-22)
(0.03705242005 0.1809606969 -2.221803529e-22)
(0.1058771269 0.1422283035 -1.112948513e-22)
(0.1731027891 0.1120884192 -4.3468386e-23)
(0.2337642764 0.08978258077 9.685441805e-23)
(0.2878737997 0.07327640948 -1.321793147e-22)
(0.3361189836 0.06062361179 1.139621376e-22)
(0.3791007431 0.05024993143 -7.183427003e-23)
(0.4169838014 0.0408052169 2.136048204e-25)
(0.4492890547 0.03102862507 1.274307515e-23)
(0.4747833555 0.01968340268 6.707319779e-23)
(0.4911581658 0.005519012607 -1.585130132e-22)
(0.4955843656 -0.01273145112 -1.481083348e-22)
(0.4833940757 -0.03717902691 -4.223029608e-23)
(0.4495102629 -0.07197135711 0)
(0.3835181184 -0.126153404 -1.518894541e-22)
(0.2833754838 -0.2200642516 7.722482179e-22)
(0.1147027816 -0.3518146567 1.565277274e-21)
(0.02548614506 -0.3767002723 2.137404037e-21)
(0.2148632099 0.1352940582 9.706457918e-22)
(0.2797259192 0.09956892748 0)
(0.4344902148 0.0586227845 -2.553731447e-22)
(0.5326139143 0.03851128772 -1.764793735e-22)
(0.6017091868 0.02585685331 0)
(0.6539844951 0.01767482541 -6.04177043e-23)
(0.6948278075 0.01242422073 6.016560038e-23)
(0.7275533307 0.00895852945 -1.546346227e-23)
(0.7542605014 0.006509106141 2.469866184e-23)
(0.7760381489 0.00456001929 1.910377664e-23)
(0.793139775 0.002725157025 0)
(0.8051371373 0.0007042778651 -2.410729635e-23)
(0.8108796077 -0.001785181142 0)
(0.8085914723 -0.004739210032 2.515206963e-23)
(0.7946350796 -0.00880741087 1.606983975e-23)
(0.7660896758 -0.01456079247 -5.323191758e-23)
(0.7103247721 -0.02498443033 -2.317172792e-22)
(0.6236268189 -0.0422982129 -6.580939027e-22)
(0.4228431802 -0.09216687212 0)
(0.2704460635 -0.1525774554 -2.085090657e-21)
)
;

boundaryField
{
    movingWall
    {
        type            fixedValue;
        value           uniform (1 0 0);
    }
    fixedWalls
    {
        type            fixedValue;
        value           uniform (0 0 0);
    }
    frontAndBack
    {
        type            empty;
    }
}


// ************************************************************************* //
