/*--------------------------------*- C++ -*----------------------------------*\
  =========                 |
  \\      /  F ield         | OpenFOAM: The Open Source CFD Toolbox
   \\    /   O peration     | Website:  https://openfoam.org
    \\  /    A nd           | Version:  13
     \\/     M anipulation  |
\*---------------------------------------------------------------------------*/
FoamFile
{
    format      ascii;
    class       volVectorField;
    location    "3";
    object      U;
}
// * * * * * * * * * * * * * * * * * * * * * * * * * * * * * * * * * * * * * //

dimensions      [0 1 -1 0 0 0 0];

internalField   nonuniform List<vector> 
100
(
(-0.00130978 0.00125389 0)
(-0.00648151 0.0024934 0)
(-0.0137334 0.00259613 0)
(-0.0200944 0.00198849 0)
(-0.0240329 0.000965926 0)
(-0.0246921 -0.000325299 0)
(-0.0216692 -0.00169358 0)
(-0.0153054 -0.00275549 0)
(-0.00734524 -0.00283446 0)
(-0.00146322 -0.00136886 0)
(-0.00303673 0.00659538 0)
(-0.0141725 0.0125114 0)
(-0.0294598 0.0131594 0)
(-0.0423146 0.0100253 0)
(-0.0501839 0.00480334 0)
(-0.0515046 -0.00168215 0)
(-0.045515 -0.00848889 0)
(-0.0327639 -0.0137209 0)
(-0.0161445 -0.0139819 0)
(-0.00333109 -0.00717488 0)
(-0.00436581 0.0159724 0)
(-0.0203588 0.0291846 0)
(-0.0412524 0.0297522 0)
(-0.0583834 0.0222772 0)
(-0.0689676 0.0104117 0)
(-0.0712549 -0.00412412 0)
(-0.0641109 -0.0194599 0)
(-0.0475898 -0.0317119 0)
(-0.0245976 -0.0334257 0)
(-0.00506256 -0.0178807 0)
(-0.0058313 0.0286702 0)
(-0.0266063 0.050737 0)
(-0.0529497 0.0507064 0)
(-0.0742857 0.0378931 0)
(-0.0879894 0.018257 0)
(-0.0923114 -0.00582566 0)
(-0.0854598 -0.0319658 0)
(-0.0661699 -0.0544101 0)
(-0.0364777 -0.0602591 0)
(-0.00763122 -0.0340729 0)
(-0.00789167 0.0454332 0)
(-0.0346517 0.0778692 0)
(-0.0671548 0.0764166 0)
(-0.0928382 0.0571263 0)
(-0.109952 0.0287759 0)
(-0.117239 -0.00608446 0)
(-0.112255 -0.0454299 0)
(-0.0916089 -0.0825143 0)
(-0.0550958 -0.0977278 0)
(-0.011735 -0.059542 0)
(-0.0108717 0.0677715 0)
(-0.0450132 0.111284 0)
(-0.0834204 0.106511 0)
(-0.111632 0.079105 0)
(-0.130472 0.0414294 0)
(-0.140321 -0.00450525 0)
(-0.138753 -0.0585349 0)
(-0.119891 -0.115186 0)
(-0.079794 -0.148777 0)
(-0.0169418 -0.100621 0)
(-0.0152543 0.0981973 0)
(-0.0569812 0.150581 0)
(-0.0968527 0.137575 0)
(-0.120065 0.099611 0)
(-0.13412 0.0532899 0)
(-0.142859 -0.00108145 0)
(-0.145248 -0.0679389 0)
(-0.133543 -0.146397 0)
(-0.0994055 -0.210393 0)
(-0.0189542 -0.163922 0)
(-0.0216752 0.139326 0)
(-0.0679116 0.188707 0)
(-0.0899835 0.158304 0)
(-0.087882 0.108958 0)
(-0.0832252 0.0593066 0)
(-0.0834661 0.00482955 0)
(-0.089431 -0.065122 0)
(-0.0930857 -0.158733 0)
(-0.0839649 -0.262093 0)
(-0.00376763 -0.245548 0)
(-0.047081 0.205382 0)
(-0.052103 0.212866 0)
(0.0103593 0.146718 0)
(0.0668794 0.0973245 0)
(0.103417 0.0579399 0)
(0.117622 0.0185308 0)
(0.106731 -0.0342756 0)
(0.0736332 -0.12256 0)
(0.0196497 -0.255891 0)
(0.0635385 -0.284173 0)
(0.226225 0.115872 0)
(0.291239 0.111732 0)
(0.413289 0.0743099 0)
(0.501437 0.0504575 0)
(0.554149 0.0335654 0)
(0.580821 0.0203226 0)
(0.576559 0.00663486 0)
(0.537278 -0.00971055 0)
(0.42551 -0.0547678 0)
(0.331446 -0.105404 0)
)
;

boundaryField
{
    movingWall
    {
        type            fixedValue;
        value           uniform (1 0 0);
    }
    fixedWalls
    {
        type            fixedValue;
        value           uniform (0 0 0);
    }
    frontAndBack
    {
        type            empty;
    }
}


// ************************************************************************* //
