/*--------------------------------*- C++ -*----------------------------------*\
  =========                 |
  \\      /  F ield         | OpenFOAM: The Open Source CFD Toolbox
   \\    /   O peration     | Website:  https://openfoam.org
    \\  /    A nd           | Version:  13
     \\/     M anipulation  |
\*---------------------------------------------------------------------------*/
FoamFile
{
    format      ascii;
    class       volVectorField;
    location    "3";
    object      U_0;
}
// * * * * * * * * * * * * * * * * * * * * * * * * * * * * * * * * * * * * * //

dimensions      [0 1 -1 0 0 0 0];

internalField   nonuniform List<vector> 
400
(
(-2.992232678e-05 3.036312528e-05 0)
(-0.0006060079853 0.0003633230872 -8.761856412e-24)
(-0.001725383233 0.000709797489 0)
(-0.003056937674 0.0009700831093 0)
(-0.004410166489 0.001112331269 -6.048459501e-26)
(-0.005669505053 0.001127984897 3.258359351e-24)
(-0.006759258586 0.001023874405 1.998271844e-23)
(-0.007627575808 0.000815903347 3.728453553e-23)
(-0.008234529924 0.0005263060874 -4.823492187e-25)
(-0.008546569909 0.0001826350377 -8.367685571e-24)
(-0.008536086665 -0.0001825195139 1.105204562e-23)
(-0.008184572005 -0.0005321226245 -1.063558811e-22)
(-0.007489733559 -0.0008266397471 -1.220070261e-22)
(-0.006475202279 -0.001027322154 -1.434994145e-22)
(-0.005199815357 -0.001101684567 9.367852337e-24)
(-0.003765634299 -0.001031643952 -9.859629658e-24)
(-0.002322126127 -0.0008222360293 -6.349619284e-22)
(-0.001067062841 -0.0005058182431 0)
(-0.0001684124812 -0.0001534970784 2.340951197e-24)
(7.375212452e-05 9.638745006e-05 -2.899523574e-22)
(-0.0001955508742 0.0007310278829 7.9150239e-26)
(-0.001954098842 0.00252234076 8.84425442e-24)
(-0.00484121804 0.003978817433 6.083099857e-26)
(-0.008252422933 0.004870817671 3.140606547e-26)
(-0.01172921577 0.005204008845 -2.896570204e-25)
(-0.01498467721 0.00503096387 -1.047142602e-23)
(-0.01781669707 0.004421242359 2.522989394e-23)
(-0.02008220349 0.003449631649 -3.633548396e-23)
(-0.02167245088 0.002195200942 2.644128395e-23)
(-0.02249957773 0.0007456115265 9.537036913e-24)
(-0.02249470174 -0.0007969676197 -1.205476852e-23)
(-0.021615541 -0.002311376536 6.660467455e-26)
(-0.01986262627 -0.003657214166 6.571814452e-23)
(-0.01730107222 -0.004682028537 -4.404895627e-24)
(-0.01408276931 -0.005237489543 9.129004805e-24)
(-0.01046320392 -0.005206313348 -3.130474573e-22)
(-0.006803544507 -0.004537671548 3.275406422e-22)
(-0.003546645083 -0.003287607223 -4.680511187e-24)
(-0.001127887666 -0.001662812599 4.798525075e-24)
(-6.41555821e-05 -0.0001882523721 0)
(-0.0002614772878 0.002171958771 -1.338286295e-25)
(-0.003054647383 0.006110522784 1.812007285e-24)
(-0.007416055729 0.008944602821 -8.565449173e-24)
(-0.01254518843 0.01052711649 8.535860041e-26)
(-0.01778328626 0.01096690634 -8.385674554e-26)
(-0.0227161228 0.01042306581 6.380621902e-25)
(-0.02703865184 0.009058685775 -2.423318021e-23)
(-0.03052757656 0.007025128182 -2.05367201e-24)
(-0.03300989279 0.004466617515 -2.771411479e-23)
(-0.03434495403 0.001534728823 0)
(-0.03442194174 -0.001594017113 0)
(-0.03317103403 -0.004703605383 5.474041634e-23)
(-0.03058805096 -0.007531078951 5.901558282e-23)
(-0.02676725518 -0.009776147162 -4.303609832e-24)
(-0.02193379227 -0.01112884208 1.478388066e-22)
(-0.01646726764 -0.01132062703 3.03540066e-22)
(-0.01090070472 -0.01019748406 2.954589838e-22)
(-0.005876412712 -0.007808155727 9.14981609e-24)
(-0.002058564006 -0.004496413808 -4.548227463e-24)
(-0.0001518328365 -0.001072928574 0)
(-0.0002798325689 0.004148325553 -5.464777313e-24)
(-0.003954971226 0.01085418077 -1.577720629e-24)
(-0.009620588284 0.01536501567 8.400221949e-24)
(-0.01628288873 0.01774062486 0)
(-0.02310739038 0.01825855232 0)
(-0.02957497197 0.01722445317 0)
(-0.03529730793 0.01491845645 -8.973243629e-25)
(-0.03998339986 0.01157999427 1.612718903e-23)
(-0.04340012181 0.007421822229 0)
(-0.04534984634 0.002659718286 8.072040035e-24)
(-0.04566779382 -0.002452404641 7.377506662e-25)
(-0.04423654624 -0.007592775741 -7.398179092e-25)
(-0.04102068557 -0.01235094828 0)
(-0.03611394642 -0.01623792844 1.336976336e-22)
(-0.02978685028 -0.01872565333 -1.435544048e-22)
(-0.02252527134 -0.01933033909 -1.550514978e-22)
(-0.01503521319 -0.01773807657 -2.998168504e-22)
(-0.008185347738 -0.01395832987 3.561299189e-25)
(-0.002918440819 -0.008469194941 -2.554084791e-22)
(-0.0002030099821 -0.00238570881 0)
(-0.0002773759291 0.006597032643 5.518718738e-24)
(-0.00476454355 0.01664368423 5.9150893e-25)
(-0.0116557859 0.0231388054 -5.779972683e-25)
(-0.01977738777 0.02643459845 0)
(-0.02813711115 0.02704260432 2.278238157e-25)
(-0.03612703903 0.02545285615 -2.246637284e-25)
(-0.04329234807 0.02207993478 2.417614581e-25)
(-0.04928579635 0.01725425005 -2.33441952e-23)
(-0.053816457 0.01125062352 -9.059726101e-24)
(-0.05662037081 0.004338998764 -8.081439231e-24)
(-0.0574569998 -0.003155909561 0)
(-0.05612527822 -0.01080392632 1.701059804e-24)
(-0.05251143228 -0.01802280354 6.059125876e-23)
(-0.04665812909 -0.02408638784 -1.421141575e-22)
(-0.03883767407 -0.02817241069 9.019228167e-24)
(-0.02962349951 -0.02948605353 3.049610608e-22)
(-0.01991886459 -0.02745942214 -4.76977659e-24)
(-0.01089472376 -0.02200223151 0)
(-0.003888178592 -0.01372894564 1.13709965e-23)
(-0.0002424299359 -0.004152970378 1.886577069e-22)
(-0.000274091633 0.009501034956 9.91530718e-23)
(-0.005564790276 0.02346467213 -5.597021312e-25)
(-0.01367333699 0.03227815298 0)
(-0.02326304041 0.03665755813 0)
(-0.03319700409 0.03741400069 -5.274078416e-23)
(-0.0427964479 0.03526101715 -4.01946295e-23)
(-0.05155860754 0.03076246677 -2.459308448e-25)
(-0.05909377066 0.02433486685 8.375074354e-24)
(-0.06505678455 0.01629624227 8.285365359e-24)
(-0.06910575452 0.006944858526 4.337703043e-24)
(-0.0708961367 -0.003347940614 -8.038750539e-24)
(-0.07009103659 -0.0140609225 -2.066251102e-23)
(-0.06642649922 -0.0244193919 -3.134964566e-24)
(-0.05981451546 -0.03340498666 -1.334304296e-22)
(-0.05045453929 -0.03979503067 0)
(-0.03896843294 -0.04233123987 -1.593759547e-22)
(-0.02648544626 -0.0400242253 4.932151528e-24)
(-0.01459517613 -0.0325616715 0)
(-0.005228049104 -0.02068848484 2.478306342e-22)
(-0.0003044642204 -0.006493378979 -3.532934741e-22)
(-0.000279092435 0.01287420787 -9.841244866e-23)
(-0.006405816373 0.03135267349 2.173188254e-22)
(-0.01577355358 0.0428409695 1.118483133e-22)
(-0.02689102151 0.04850083154 2.366230694e-24)
(-0.03849002389 0.0495133647 -4.536455489e-23)
(-0.04984429882 0.04685811214 4.230564799e-23)
(-0.06042827368 0.04126131504 -1.547441457e-24)
(-0.06983078163 0.03321230608 -1.979048953e-25)
(-0.0776625195 0.02303766171 1.165863309e-25)
(-0.08349593714 0.01101372853 -4.262686506e-24)
(-0.08685752425 -0.002498765486 7.413715982e-24)
(-0.08720698844 -0.01689408054 2.275241235e-23)
(-0.08403014126 -0.03124728046 -1.300985864e-23)
(-0.07699690579 -0.04418868643 2.045955058e-22)
(-0.06611020275 -0.05395694201 -4.471538841e-24)
(-0.05195213254 -0.05860183237 0)
(-0.03587946066 -0.0564281352 0)
(-0.02004132465 -0.04665837855 4.180276554e-24)
(-0.007270461528 -0.03010690762 -4.272916804e-24)
(-0.0004181029744 -0.009688393491 2.814535429e-23)
(-0.0002958346467 0.01674946001 0)
(-0.00731164497 0.04036946447 1.319635519e-22)
(-0.01800161556 0.05490614561 5.849938244e-23)
(-0.0307180659 0.06206784065 0)
(-0.04407555536 0.06348962628 9.579832504e-23)
(-0.05733022075 0.0604677501 0)
(-0.06996836947 0.0539053516 -6.487932718e-23)
(-0.08159047325 0.04434493063 2.494963263e-24)
(-0.09178833419 0.03207207903 0)
(-0.100058642 0.01726889439 0)
(-0.1057395736 0.000202393461 2.344088607e-25)
(-0.1080573825 -0.01854631617 7.875817558e-25)
(-0.1061695688 -0.03792658409 -7.864728392e-23)
(-0.09931442045 -0.05619620976 -1.579473271e-23)
(-0.08712419267 -0.07090800409 4.236736551e-24)
(-0.06997456289 -0.07911374425 -5.352728479e-24)
(-0.0493719329 -0.07796622323 5.437116286e-24)
(-0.0281397652 -0.06576447737 0)
(-0.01043648167 -0.04317201872 -1.412857492e-24)
(-0.0006178194558 -0.01422203332 2.443605326e-22)
(-0.0003271297738 0.02116681351 0)
(-0.008290883318 0.05057997086 -8.921025712e-23)
(-0.02035689789 0.06853904598 -4.305885628e-22)
(-0.03470868618 0.07742596269 -2.47765629e-22)
(-0.04985608647 0.07943672971 0)
(-0.0650728118 0.07624935463 2.277556107e-22)
(-0.07990046005 0.0689644036 5.719574934e-23)
(-0.09399605159 0.05815559637 -1.996093452e-24)
(-0.1069709751 0.04400619523 1.98621745e-24)
(-0.1182690285 0.0265079057 0)
(-0.1270792983 0.00571126476 6.489047053e-24)
(-0.1323295597 -0.01799083608 -2.044754863e-25)
(-0.1327356726 -0.04350696782 3.032806886e-23)
(-0.1269869262 -0.06876735156 -5.138946923e-23)
(-0.1141148588 -0.09052754298 1.077317567e-22)
(-0.0940169182 -0.104494377 0)
(-0.06811465379 -0.1060434534 0)
(-0.03987621396 -0.0917548804 0)
(-0.0152517126 -0.06156067546 0)
(-0.0009531558698 -0.02083717503 -1.065944778e-22)
(-0.0003793011081 0.02617004283 0)
(-0.00935450945 0.06203587473 -2.450908404e-22)
(-0.02281658526 0.08375651703 6.154314283e-22)
(-0.03875551134 0.09454870459 2.384772353e-22)
(-0.05558348648 0.09730956373 0)
(-0.07262978323 0.09418450232 -2.14377322e-22)
(-0.08953974092 0.08650331354 -1.586279462e-23)
(-0.1060811954 0.07485348814 1.563679494e-22)
(-0.1219426093 0.05925191068 7.417043482e-23)
(-0.136572646 0.03938825265 -1.512373565e-23)
(-0.1490558549 0.01493805535 8.319252958e-24)
(-0.1580560406 -0.01404960594 -1.299681484e-24)
(-0.1618375343 -0.04666482401 6.882425462e-23)
(-0.1584444476 -0.08065189308 0)
(-0.1460989065 -0.1119719196 -1.077835166e-22)
(-0.1238643545 -0.1347063368 -5.257233649e-24)
(-0.09261544709 -0.1417207107 5.335573297e-24)
(-0.05609878438 -0.1266508319 -2.134751662e-22)
(-0.02234014799 -0.08742350067 5.31353309e-24)
(-0.0015031401 -0.03060350421 0)
(-0.0004686099404 0.03181809656 0)
(-0.01054694588 0.07477393093 0)
(-0.0253796846 0.1004978172 -3.461027418e-22)
(-0.04272526416 0.1132523613 -1.27576323e-23)
(-0.06089551428 0.1168219597 1.233800166e-23)
(-0.07931357772 0.1139302751 -1.219228961e-23)
(-0.09777472402 0.106183555 -1.177900968e-23)
(-0.1162116196 0.09417958691 -1.407181853e-22)
(-0.1344575614 0.07772073713 4.122789607e-23)
(-0.1520559132 0.0560994144 1.673720519e-23)
(-0.1681003123 0.02846770777 -1.483326344e-23)
(-0.1811202999 -0.005680031914 0)
(-0.1890589912 -0.04587804108 1.737541821e-23)
(-0.1893841279 -0.089959976 0)
(-0.1794173798 -0.1333200642 -6.182236691e-23)
(-0.1570345019 -0.1683905463 -1.881842505e-23)
(-0.1218726967 -0.1849149494 0)
(-0.07705442909 -0.1720003863 2.081023756e-22)
(-0.0323564189 -0.1231892775 -2.061531813e-22)
(-0.002400128541 -0.04498585714 7.251178174e-23)
(-0.0006335635863 0.03822256836 0)
(-0.01199982075 0.08883910936 6.585760932e-22)
(-0.02813984518 0.1186075123 -1.720563951e-23)
(-0.04653881541 0.1331327276 6.424381194e-22)
(-0.06539693912 0.1373364807 -1.678555354e-23)
(-0.08427469928 0.1346566083 1.67834097e-23)
(-0.1031567103 0.1270367901 -1.663017061e-23)
(-0.1221840215 0.115102295 -8.52981749e-24)
(-0.141400784 0.09842911695 -2.658644982e-22)
(-0.1605571694 0.07586832282 -4.292686961e-24)
(-0.1789341388 0.04595548482 4.164171936e-24)
(-0.1951902408 0.007458448867 1.584441698e-22)
(-0.2072522649 -0.03988533195 -2.362418355e-22)
(-0.2123159868 -0.0943958974 0)
(-0.2069805165 -0.1514344479 2.512745121e-22)
(-0.1877552429 -0.2022383893 1.671348239e-23)
(-0.1522815082 -0.2333335611 1.209128973e-24)
(-0.1015857917 -0.2277721142 0)
(-0.04576132494 -0.1710169784 2.041703803e-22)
(-0.00386321123 -0.06587631816 -7.068182231e-23)
(-0.0009596652254 0.04563200207 1.11604833e-23)
(-0.01402123311 0.1043450887 -6.285901376e-22)
(-0.03138950522 0.1378355279 -8.601899784e-22)
(-0.0502767524 0.1535099317 -6.03149071e-22)
(-0.06877146773 0.157768092 0)
(-0.08664500701 0.1549142469 2.225068335e-23)
(-0.1041124928 0.1472921501 -4.48874901e-23)
(-0.1215540221 0.1355910425 3.453118598e-23)
(-0.1392769244 0.1192008373 1.595717714e-22)
(-0.1573516561 0.09657445603 -6.165777694e-24)
(-0.1754596744 0.06565015483 0)
(-0.1927299766 0.0244108552 -1.704928002e-22)
(-0.2075278066 -0.02834201907 3.869523505e-22)
(-0.2173531118 -0.09186972067 4.81212025e-22)
(-0.2186219177 -0.1623243467 -1.886104973e-22)
(-0.2067034023 -0.2308192702 2.114289577e-22)
(-0.176781838 -0.2815363333 -4.597351824e-24)
(-0.1260740692 -0.2908502085 4.671079364e-24)
(-0.0622875665 -0.2316797827 -4.588449917e-22)
(-0.00622416562 -0.09549123584 0)
(-0.001627396047 0.05459325627 -1.432280693e-23)
(-0.01723463792 0.1215627874 -1.031023047e-21)
(-0.03573677971 0.1578208003 8.147470607e-22)
(-0.05425727513 0.1733506121 5.191723942e-22)
(-0.07084170414 0.1764953877 4.545130308e-22)
(-0.08563670719 0.1725667534 4.836426698e-22)
(-0.09916297573 0.1643422093 -2.9128541e-23)
(-0.1120721896 0.1526115999 -2.329982792e-22)
(-0.1249679811 0.1366658712 1.402225171e-22)
(-0.1383212745 0.1147011686 0)
(-0.1523875979 0.08422527684 0)
(-0.1670798048 0.04256959027 1.723043596e-22)
(-0.1816581481 -0.0124086962 9.809466905e-23)
(-0.1946555344 -0.08146635782 -9.524075482e-23)
(-0.2031890601 -0.1622464192 -3.197703085e-23)
(-0.202306328 -0.2473893533 1.596830095e-22)
(-0.1850662083 -0.3208587871 -1.047493183e-22)
(-0.1436324402 -0.3536977025 -1.968145716e-22)
(-0.08001156208 -0.3027924189 4.582167939e-22)
(-0.009890296824 -0.1359703657 -8.455234396e-22)
(-0.003014608389 0.06627142965 0)
(-0.02277492649 0.1410613759 1.699949856e-21)
(-0.04213827711 0.1780549876 0)
(-0.05888902194 0.1911626211 -1.079907993e-21)
(-0.07129206549 0.1912869799 8.487735973e-23)
(-0.08022996714 0.1848152786 -4.50319691e-22)
(-0.08668823984 0.1749061593 -3.565985839e-22)
(-0.09165065921 0.1624397692 5.825003774e-22)
(-0.096031328 0.1466962766 -1.218403782e-22)
(-0.1007101092 0.1258067524 0)
(-0.1065492972 0.09712007369 0)
(-0.114347904 0.05760841673 3.69736938e-23)
(-0.1247633135 0.004391332041 -3.987745909e-22)
(-0.1377407996 -0.06466689885 -2.822104423e-22)
(-0.1519341011 -0.1494907846 3.557107693e-22)
(-0.1636852426 -0.2459318698 -3.777345848e-22)
(-0.1654217439 -0.3409071335 -5.375818401e-24)
(-0.1443328912 -0.4041871635 2.186826143e-22)
(-0.09429835714 -0.3767065456 6.419945237e-22)
(-0.01515489527 -0.1884439556 8.439295724e-22)
(-0.005818903585 0.08284534827 0)
(-0.03242516955 0.1634289436 1.651885635e-22)
(-0.05147937877 0.1972526358 -4.165110507e-23)
(-0.06372066192 0.2043434234 6.294632502e-22)
(-0.06831151554 0.1988317988 -5.668805969e-22)
(-0.0675683615 0.1880045517 3.796930781e-23)
(-0.06321888587 0.1751524114 -1.027120929e-22)
(-0.05667061681 0.1611126443 -2.443354622e-22)
(-0.04913236559 0.1451695606 1.576284928e-22)
(-0.04181016617 0.1255432662 0)
(-0.03605272802 0.09970415895 0)
(-0.03341883337 0.06464874503 -2.097046456e-22)
(-0.0356809852 0.01721251605 0)
(-0.04448951059 -0.04552446492 -4.607108327e-22)
(-0.06082476014 -0.1258285558 3.183426328e-23)
(-0.08361438954 -0.2237641781 1.933612416e-23)
(-0.1074285843 -0.3325617759 8.791383918e-23)
(-0.1165208506 -0.4273109361 9.326086921e-24)
(-0.09718367522 -0.4391233732 -6.634977546e-22)
(-0.02162560004 -0.2509913901 0)
(-0.01140393795 0.1091198865 0)
(-0.04800009563 0.1895286827 -7.647292669e-22)
(-0.06192758084 0.2129434037 -4.992332563e-22)
(-0.06333382682 0.2086227738 4.243719977e-22)
(-0.05365605778 0.1943293633 -2.152666324e-24)
(-0.03766910306 0.1774941485 -4.069149314e-23)
(-0.01805811828 0.1608963313 4.748762274e-22)
(0.003386269946 0.1449625114 -2.207597081e-23)
(0.02532003459 0.1288395091 -1.567537024e-22)
(0.04644596456 0.11087025 2.490709566e-23)
(0.06523329788 0.08883232104 -2.734478706e-23)
(0.07974377922 0.06009994098 -3.020386677e-23)
(0.08749378917 0.02179444474 2.705339268e-22)
(0.08560253984 -0.02918967074 5.145293279e-22)
(0.0709443363 -0.09622467906 -4.418057075e-22)
(0.04128691375 -0.1831159148 -1.682390548e-22)
(-0.003090015955 -0.291328846 1.264205147e-22)
(-0.04761035792 -0.4084929258 6.998791389e-23)
(-0.07685767666 -0.4700561923 1.837565217e-21)
(-0.02637494321 -0.316556395 2.861568858e-21)
(-0.01974041339 0.1486067075 -4.122075157e-23)
(-0.06608779125 0.2115693807 4.147603168e-23)
(-0.05788468432 0.2131178306 9.473735086e-22)
(-0.03397075934 0.1917623567 1.158758297e-23)
(0.0008030965249 0.1675061703 0)
(0.03908887819 0.1455147431 4.024017518e-23)
(0.07797846341 0.1267190339 -2.004426368e-22)
(0.1160078625 0.1105478078 -7.819972246e-23)
(0.1522863242 0.09580726314 3.080001026e-23)
(0.1859285052 0.08095651444 -1.316559536e-23)
(0.215693877 0.0641995399 2.737715598e-23)
(0.2397736058 0.04352818908 -5.51604575e-23)
(0.255510909 0.01675130061 -7.401352867e-23)
(0.2596055165 -0.01864086525 1.396241498e-22)
(0.2476581131 -0.06570507097 0)
(0.2150201366 -0.1297412995 1.615093922e-22)
(0.1559345663 -0.2189589381 2.261056042e-22)
(0.07798885915 -0.3388124325 0)
(-0.01639022069 -0.4487400059 -3.528542412e-21)
(-0.02065244444 -0.3721469328 -2.801022895e-21)
(-0.02529763023 0.2298826471 -9.369809013e-22)
(-0.03834972863 0.2259816529 -1.347793497e-22)
(0.03706191875 0.180966454 -2.221830171e-22)
(0.1058797798 0.1422251355 -1.112921215e-22)
(0.1730904076 0.1120753918 -4.348217647e-23)
(0.233729148 0.08976060311 9.690178593e-23)
(0.2878098208 0.07324772523 -1.322214656e-22)
(0.3360224462 0.06059159375 1.139580923e-22)
(0.3789711234 0.05021889945 -7.180515552e-23)
(0.4168244494 0.04078004427 2.145754756e-25)
(0.4491074539 0.03101394831 1.273258751e-23)
(0.4745908987 0.01968251851 6.701201868e-23)
(0.490967755 0.005532563611 -1.583825889e-22)
(0.4954093412 -0.01270572471 -1.480041426e-22)
(0.4832453717 -0.03714712479 -4.221537226e-23)
(0.4493927314 -0.07194162896 0)
(0.3834311655 -0.1261331076 -1.517291916e-22)
(0.2833148397 -0.2200545716 7.719967305e-22)
(0.1146670388 -0.3518074148 1.56487159e-21)
(0.02547783168 -0.3766933758 2.137181282e-21)
(0.2148648077 0.1352954503 9.706244836e-22)
(0.2797332334 0.09957185866 0)
(0.4345024463 0.05862527368 -2.55389384e-22)
(0.5326273407 0.03851244 -1.765261897e-22)
(0.6017185054 0.02585639889 0)
(0.6539844966 0.0176729104 -6.045121009e-23)
(0.6948143269 0.01242127557 6.018903026e-23)
(0.7275238489 0.008955194419 -1.546248338e-23)
(0.7542146361 0.006506165745 2.469597327e-23)
(0.7759779841 0.004558309229 1.909415083e-23)
(0.793069924 0.002725374811 0)
(0.8050642054 0.0007068232551 -2.408700352e-23)
(0.8108115032 -0.001780910198 0)
(0.8085356825 -0.00473344381 2.513634623e-23)
(0.794595869 -0.008801466822 1.607103737e-23)
(0.7660674795 -0.01455632803 -5.320743008e-23)
(0.7103156178 -0.02498249926 -2.315967918e-22)
(0.6236238703 -0.0422986582 -6.578932253e-22)
(0.4228408812 -0.09216864996 0)
(0.2704451102 -0.1525784895 -2.084873333e-21)
)
;

boundaryField
{
    movingWall
    {
        type            calculated;
        value           uniform (1 0 0);
    }
    fixedWalls
    {
        type            calculated;
        value           uniform (0 0 0);
    }
    frontAndBack
    {
        type            empty;
    }
}


// ************************************************************************* //
