/*--------------------------------*- C++ -*----------------------------------*\
  =========                 |
  \\      /  F ield         | OpenFOAM: The Open Source CFD Toolbox
   \\    /   O peration     | Website:  https://openfoam.org
    \\  /    A nd           | Version:  13
     \\/     M anipulation  |
\*---------------------------------------------------------------------------*/
FoamFile
{
    format      ascii;
    class       volVectorField;
    location    "3";
    object      U_0;
}
// * * * * * * * * * * * * * * * * * * * * * * * * * * * * * * * * * * * * * //

dimensions      [0 1 -1 0 0 0 0];

internalField   nonuniform List<vector> 
400
(
(-0.000278647208 0.0002733070468 0)
(-0.001176241632 0.0007373683555 0)
(-0.002703155492 0.000913526233 0)
(-0.004342855155 0.0009307932508 0)
(-0.005922783231 0.0008667916944 0)
(-0.007338923542 0.0007539768702 0)
(-0.008533443958 0.0006102902198 0)
(-0.009468228249 0.0004460401653 0)
(-0.0101161396 0.0002681333644 0)
(-0.01045834155 8.20419064e-05 0)
(-0.01048351993 -0.0001072877637 0)
(-0.01018791796 -0.0002949398176 0)
(-0.009575906004 -0.0004756335266 0)
(-0.008661042181 -0.0006432268853 0)
(-0.007467834608 -0.0007898446549 0)
(-0.006035231512 -0.0009039970353 0)
(-0.004425729001 -0.0009665079023 0)
(-0.002751592379 -0.0009438167686 0)
(-0.001199403603 -0.000757084085 0)
(-0.0002806902826 -0.0002787049206 0)
(-0.0007766483671 0.001158364455 0)
(-0.002300067885 0.002285941806 0)
(-0.005843619245 0.003042011327 0)
(-0.00954255533 0.003144218719 0)
(-0.0131882352 0.002946230774 0)
(-0.01650089053 0.002587400738 0)
(-0.01932091167 0.002128705268 0)
(-0.02154543654 0.001600672982 0)
(-0.02310232797 0.001022617189 0)
(-0.02394121705 0.0004100682861 0)
(-0.02403040834 -0.0002220896761 0)
(-0.02335677275 -0.0008579385062 0)
(-0.02192770907 -0.001479229695 0)
(-0.01977511621 -0.002063855583 0)
(-0.01696199724 -0.00258315428 0)
(-0.01359420035 -0.002995430488 0)
(-0.009847533946 -0.003228381312 0)
(-0.006029361313 -0.003133729876 0)
(-0.002399635145 -0.002353049599 0)
(-0.0007739889543 -0.001182875247 0)
(-0.001044511229 0.002724172942 0)
(-0.003272093587 0.00584519081 0)
(-0.008010804736 0.007497360231 0)
(-0.01275185138 0.007724913139 0)
(-0.01735524309 0.007237943877 0)
(-0.02151332706 0.00634977311 0)
(-0.02503887418 0.005208167534 0)
(-0.02780821804 0.003892350494 0)
(-0.02973510657 0.002453739935 0)
(-0.03076069291 0.0009330427934 0)
(-0.03084931506 -0.0006318782764 0)
(-0.02998774519 -0.002201406721 0)
(-0.02818715376 -0.003730434393 0)
(-0.02548773325 -0.005164086167 0)
(-0.02196655716 -0.006430629653 0)
(-0.01775058378 -0.007426325905 0)
(-0.01304406631 -0.007978382298 0)
(-0.008183818518 -0.007753947857 0)
(-0.003368118434 -0.006034568749 0)
(-0.001036321811 -0.002781901549 0)
(-0.001216393267 0.0045830777 0)
(-0.003800475318 0.009961683157 0)
(-0.009307710368 0.01245443813 0)
(-0.01473665684 0.01275351902 0)
(-0.01996698748 0.01192571954 0)
(-0.0246692722 0.01045218282 0)
(-0.0286441025 0.008566531093 0)
(-0.03176063621 0.006397657489 0)
(-0.03392827381 0.004030129484 0)
(-0.03508532523 0.001530300065 0)
(-0.03519373442 -0.001041008705 0)
(-0.03423775257 -0.003620584681 0)
(-0.0322260855 -0.006136070312 0)
(-0.02919749058 -0.008498370824 0)
(-0.02523041861 -0.01058995275 0)
(-0.02045837049 -0.01224154415 0)
(-0.0151005217 -0.01317756833 0)
(-0.009522372198 -0.01288302063 0)
(-0.003917731419 -0.01027403029 0)
(-0.001206888135 -0.004674540581 0)
(-0.001375162765 0.00667090232 0)
(-0.004256494041 0.0146646298 0)
(-0.01045705113 0.01805195783 0)
(-0.01652898474 0.01838932032 0)
(-0.02234850406 0.01715287131 0)
(-0.02755741035 0.0150105393 0)
(-0.03194657815 0.01229011912 0)
(-0.03538358372 0.009174201218 0)
(-0.03777884938 0.00578210878 0)
(-0.03907128992 0.002205712742 0)
(-0.03922115886 -0.001472431309 0)
(-0.03820784182 -0.005167022152 0)
(-0.03603227327 -0.008779266478 0)
(-0.0327241013 -0.0121847926 0)
(-0.02835444477 -0.01521623421 0)
(-0.02305617645 -0.01763060275 0)
(-0.01706218078 -0.01903543938 0)
(-0.01077831352 -0.01870820588 0)
(-0.004424967418 -0.01514160685 0)
(-0.001368689916 -0.006807905618 0)
(-0.001556355704 0.009000546352 0)
(-0.004787909455 0.01995020348 0)
(-0.01177921529 0.02431895199 0)
(-0.01859079726 0.02466757832 0)
(-0.02508549851 0.02294720915 0)
(-0.03086925185 0.02004301055 0)
(-0.03572400882 0.01639090749 0)
(-0.03952031843 0.01223277796 0)
(-0.04217474183 0.007723488899 0)
(-0.04363049128 0.002978191926 0)
(-0.04384715837 -0.001902863043 0)
(-0.04279697011 -0.006816867555 0)
(-0.04046734981 -0.01164225245 0)
(-0.03687030639 -0.01622020603 0)
(-0.0320599904 -0.02032931484 0)
(-0.02616100917 -0.02364091114 0)
(-0.01941914572 -0.02562225482 0)
(-0.01229222245 -0.02530205513 0)
(-0.00504775048 -0.02067518411 0)
(-0.001558197811 -0.009207556232 0)
(-0.001782344003 0.01163598653 0)
(-0.005469396463 0.02594067873 0)
(-0.01344461348 0.03139508626 0)
(-0.02116752577 0.03171767407 0)
(-0.02848123301 0.02941521332 0)
(-0.03495040516 0.02563115381 0)
(-0.04035175808 0.0209293432 0)
(-0.04456643966 0.0156186237 0)
(-0.04752502068 0.009889654411 0)
(-0.0491808396 0.0038763603 0)
(-0.04949515139 -0.002310687802 0)
(-0.04843095575 -0.008559637595 0)
(-0.04595523869 -0.01473361938 0)
(-0.04205091855 -0.02064310437 0)
(-0.03674088297 -0.02600883693 0)
(-0.0301279565 -0.0304005254 0)
(-0.02246447467 -0.03311140391 0)
(-0.01426948067 -0.03286278402 0)
(-0.00587892833 -0.02705486385 0)
(-0.001799553082 -0.01195506701 0)
(-0.002071446576 0.01467027251 0)
(-0.006357470599 0.03283159798 0)
(-0.01558147047 0.03948655152 0)
(-0.02443795639 0.03971865686 0)
(-0.03274455952 0.03669628659 0)
(-0.04002238164 0.03187614743 0)
(-0.04605266487 0.02597643281 0)
(-0.05074098805 0.01938246746 0)
(-0.05404502761 0.01231975596 0)
(-0.05593799633 0.004933315488 0)
(-0.05638758019 -0.002667871541 0)
(-0.05534617039 -0.01037688255 0)
(-0.05275186434 -0.01805489336 0)
(-0.04854257599 -0.02549067671 0)
(-0.04268773455 -0.03234612356 0)
(-0.03524396597 -0.03807061629 0)
(-0.02645240519 -0.04173768577 0)
(-0.01689650907 -0.04167814405 0)
(-0.007006631277 -0.03456156589 0)
(-0.00211404852 -0.01517013203 0)
(-0.002444385338 0.01822494742 0)
(-0.007516650905 0.040881297 0)
(-0.01832728951 0.04885285694 0)
(-0.0285822569 0.04888057454 0)
(-0.03806917988 0.04493931902 0)
(-0.04626978308 0.03887356095 0)
(-0.05298983694 0.03159011167 0)
(-0.05818291145 0.02356141039 0)
(-0.06185461103 0.01504426209 0)
(-0.06401342761 0.006182344001 0)
(-0.06464203537 -0.00293510995 0)
(-0.06368255065 -0.0122277338 0)
(-0.06103467345 -0.02157696654 0)
(-0.05657024304 -0.03076814978 0)
(-0.05017218344 -0.03941072684 0)
(-0.04180956464 -0.04681589317 0)
(-0.03167429348 -0.0517788857 0)
(-0.02040243645 -0.05212203929 0)
(-0.008548397915 -0.04358468471 0)
(-0.00252682077 -0.01901688827 0)
(-0.002929401658 0.02246011891 0)
(-0.009037094569 0.05042303834 0)
(-0.02186018422 0.05980902493 0)
(-0.03381700957 0.05943439901 0)
(-0.0446656634 0.05428358326 0)
(-0.05386642296 0.04669008907 0)
(-0.06128637409 0.03779215071 0)
(-0.06696483403 0.02815921323 0)
(-0.07098655108 0.01807089332 0)
(-0.07341803587 0.007650192826 0)
(-0.0742707394 -0.003059859313 0)
(-0.07348022812 -0.01403706855 0)
(-0.07089896089 -0.02521784271 0)
(-0.06630744721 -0.03641721869 0)
(-0.05945657977 -0.04721375675 0)
(-0.05016265385 -0.05677162209 0)
(-0.03849625277 -0.06353928812 0)
(-0.02510095126 -0.06466614693 0)
(-0.01068063834 -0.0546611712 0)
(-0.003071448218 -0.0237254304 0)
(-0.003568066746 0.0275938401 0)
(-0.01105359157 0.06189040022 0)
(-0.02642453961 0.07273084326 0)
(-0.04041295505 0.07161574279 0)
(-0.05276269794 0.06482878913 0)
(-0.06295829677 0.0553285211 0)
(-0.07099196609 0.04453436669 0)
(-0.07704619448 0.03311760443 0)
(-0.0813287238 0.02136319188 0)
(-0.0839951293 0.009344379182 0)
(-0.08510573502 -0.002978691449 0)
(-0.08459889901 -0.01568542612 0)
(-0.08227530248 -0.02881761694 0)
(-0.07779876059 -0.04227478179 0)
(-0.07073207285 -0.05565321436 0)
(-0.06064433824 -0.06798645656 0)
(-0.04736006795 -0.07731135029 0)
(-0.03141881243 -0.07988676526 0)
(-0.0136731185 -0.06853761181 0)
(-0.003792776897 -0.02962983806 0)
(-0.004423563638 0.03393459572 0)
(-0.01377165103 0.07585319418 0)
(-0.03235284039 0.08805263286 0)
(-0.04868943866 0.08562753254 0)
(-0.06256401762 0.07657954473 0)
(-0.07358506319 0.06466872363 0)
(-0.08197585464 0.05164511414 0)
(-0.08814476075 0.03827238602 0)
(-0.0924792802 0.02480745905 0)
(-0.09526203998 0.01123121247 0)
(-0.09662804829 -0.002627062831 0)
(-0.09653526689 -0.01700358838 0)
(-0.0947380902 -0.03211265293 0)
(-0.09076759664 -0.04802053549 0)
(-0.0839418788 -0.06443242979 0)
(-0.07346161245 -0.08032113837 0)
(-0.05870912334 -0.09328565086 0)
(-0.03988946145 -0.09843822688 0)
(-0.0179290843 -0.08624721494 0)
(-0.004745332963 -0.0372300278 0)
(-0.005593187392 0.04193473284 0)
(-0.01750419556 0.09305692231 0)
(-0.04006960003 0.1062351398 0)
(-0.05894926498 0.1015532517 0)
(-0.0741061271 0.08933892818 0)
(-0.08547435443 0.07436639816 0)
(-0.09367626429 0.05874508432 0)
(-0.0994564949 0.04328872344 0)
(-0.1034465632 0.02816527829 0)
(-0.1060940179 0.01320229021 0)
(-0.1076351166 -0.001960154266 0)
(-0.1080713904 -0.01777765862 0)
(-0.1071331284 -0.03471610185 0)
(-0.1042278603 -0.05311855795 0)
(-0.09839591052 -0.07294745427 0)
(-0.08834393796 -0.09327946089 0)
(-0.07274106796 -0.1113601104 0)
(-0.05104107516 -0.1209315102 0)
(-0.02401432625 -0.1091681534 0)
(-0.005978185364 -0.04728760779 0)
(-0.00722582865 0.05227748364 0)
(-0.02271645741 0.1144406544 0)
(-0.05002623268 0.1276489634 0)
(-0.07125025436 0.1191606706 0)
(-0.08687623523 0.1025048744 0)
(-0.09755234991 0.08368265585 0)
(-0.1045481455 0.06512175212 0)
(-0.1090714889 0.04757493029 0)
(-0.1120500102 0.03101475911 0)
(-0.114115352 0.01503207522 0)
(-0.1156184167 -0.0009855511761 0)
(-0.1166290476 -0.01777097997 0)
(-0.1168969953 -0.03611722485 0)
(-0.1157617976 -0.05676840482 0)
(-0.1120194856 -0.08015144505 0)
(-0.1038126422 -0.1057511064 0)
(-0.08879553526 -0.1307753263 0)
(-0.06501600685 -0.1475943791 0)
(-0.03261415626 -0.1389579945 0)
(-0.007480695598 -0.06096272949 0)
(-0.009537224339 0.06601507866 0)
(-0.03005314199 0.1410533365 0)
(-0.06241189321 0.1522358021 0)
(-0.08473783258 0.1374680614 0)
(-0.09885330314 0.1146914906 0)
(-0.1068263358 0.09121673447 0)
(-0.1108847191 0.06956684729 0)
(-0.1127893627 0.05019249759 0)
(-0.1137520512 0.03270025261 0)
(-0.1145498933 0.01634203897 0)
(-0.1156218845 0.000200502703 0)
(-0.117115884 -0.01676421015 0)
(-0.1188632244 -0.03571350233 0)
(-0.1202564363 -0.05789364227 0)
(-0.1200064741 -0.08442830626 0)
(-0.1157908581 -0.1156697384 0)
(-0.1040603592 -0.1494891923 0)
(-0.08060448044 -0.1774918498 0)
(-0.04424587279 -0.1770947892 0)
(-0.009016188942 -0.07997396619 0)
(-0.01277162555 0.08478432546 0)
(-0.04023758764 0.1735870642 0)
(-0.07616031693 0.1785866905 0)
(-0.09580108007 0.1538221966 0)
(-0.1041924018 0.1230901085 0)
(-0.1059349342 0.09456743455 0)
(-0.1044086709 0.07024462262 0)
(-0.1018145318 0.04983007222 0)
(-0.09946277058 0.03234457791 0)
(-0.09811701155 0.01660990252 0)
(-0.09820131785 0.001397539452 0)
(-0.09991398312 -0.01460351949 0)
(-0.1032350468 -0.03288402724 0)
(-0.1077986791 -0.05520520608 0)
(-0.1125711181 -0.08354431985 0)
(-0.1151987275 -0.1196537924 0)
(-0.1111571752 -0.1632425286 0)
(-0.09318152598 -0.2069766264 0)
(-0.05830311308 -0.2234418142 0)
(-0.00961492482 -0.1066850711 0)
(-0.01683754403 0.1119154644 0)
(-0.05343971142 0.2120951686 0)
(-0.08557114393 0.2021093534 0)
(-0.09306381932 0.1623651223 0)
(-0.08788648696 0.1227765666 0)
(-0.07811613948 0.09022966444 0)
(-0.0676962898 0.06485187645 0)
(-0.05858612617 0.04501760303 0)
(-0.05167760578 0.02903517439 0)
(-0.04739289969 0.01528954694 0)
(-0.04594319366 0.00234021678 0)
(-0.04750280352 -0.01124784024 0)
(-0.05225620565 -0.02712312987 0)
(-0.06030200288 -0.04741277966 0)
(-0.07139080435 -0.07483479829 0)
(-0.08408183656 -0.1128910309 0)
(-0.09404332397 -0.1645677167 0)
(-0.09086307463 -0.2272951298 0)
(-0.07059363557 -0.273406547 0)
(-0.005960826875 -0.1443536272 0)
(-0.01926926778 0.1506604841 0)
(-0.06793593003 0.2457809597 0)
(-0.06941485953 0.2084638508 0)
(-0.04477412823 0.1517479521 0)
(-0.01474561072 0.1068720161 0)
(0.01184903823 0.07443205809 0)
(0.03337971119 0.05144893326 0)
(0.04980521247 0.03487120936 0)
(0.0615036548 0.02234169668 0)
(0.0687811035 0.01211211417 0)
(0.07187556249 0.002802246946 0)
(0.07072044687 -0.006861928393 0)
(0.06487525876 -0.01833469468 0)
(0.05361485094 -0.03361652342 0)
(0.0357914485 -0.05577392091 0)
(0.0103964626 -0.08962349759 0)
(-0.02136477957 -0.1420217212 0)
(-0.04819232699 -0.2204344767 0)
(-0.0698519694 -0.3094822775 0)
(0.01252092554 -0.1955950775 0)
(-0.01982625242 0.2184565997 0)
(-0.0503527392 0.2638943991 0)
(0.05420648216 0.1709402219 0)
(0.1306454557 0.1098804254 0)
(0.1889732159 0.0708811677 0)
(0.2298525637 0.04608134741 0)
(0.2589066509 0.03029264311 0)
(0.2792682646 0.02001762684 0)
(0.2930326333 0.01292180798 0)
(0.3014725799 0.00760048566 0)
(0.3052331248 0.003097118198 0)
(0.3043545656 -0.001354359506 0)
(0.2982028377 -0.006564165475 0)
(0.2852659616 -0.01368689611 0)
(0.2626754332 -0.02495309297 0)
(0.2257745358 -0.04492404023 0)
(0.1671573059 -0.08347007471 0)
(0.09071642802 -0.1651654504 0)
(-0.03472091989 -0.324797518 0)
(0.06563693908 -0.2658446837 0)
(0.2568281206 0.1077500279 0)
(0.3263198813 0.104109923 0)
(0.4835764235 0.06139981883 0)
(0.5755322943 0.04013336355 0)
(0.6304793821 0.02602747998 0)
(0.6642253499 0.016877855 0)
(0.6854717434 0.01099316863 0)
(0.6990601267 0.007163253201 0)
(0.7077558572 0.004582500701 0)
(0.7131003457 0.002740418659 0)
(0.7159040622 0.001307253572 0)
(0.7164949469 5.173643832e-05 0)
(0.7148037572 -0.001220935813 0)
(0.7102944274 -0.002730512359 0)
(0.7016146946 -0.004822188466 0)
(0.6858115153 -0.008166653383 0)
(0.653963508 -0.01433493856 0)
(0.5953672869 -0.02340258783 0)
(0.4427984834 -0.06618458108 0)
(0.333903159 -0.1072627461 0)
)
;

boundaryField
{
    movingWall
    {
        type            calculated;
        value           uniform (1 0 0);
    }
    fixedWalls
    {
        type            calculated;
        value           uniform (0 0 0);
    }
    frontAndBack
    {
        type            empty;
    }
}


// ************************************************************************* //
