/*--------------------------------*- C++ -*----------------------------------*\
  =========                 |
  \\      /  F ield         | OpenFOAM: The Open Source CFD Toolbox
   \\    /   O peration     | Website:  https://openfoam.org
    \\  /    A nd           | Version:  13
     \\/     M anipulation  |
\*---------------------------------------------------------------------------*/
FoamFile
{
    format      ascii;
    class       volVectorField;
    location    "3";
    object      U_0;
}
// * * * * * * * * * * * * * * * * * * * * * * * * * * * * * * * * * * * * * //

dimensions      [0 1 -1 0 0 0 0];

internalField   nonuniform List<vector> 
100
(
(-0.00140671 0.00136822 0)
(-0.00618526 0.00248969 0)
(-0.0121222 0.00233559 0)
(-0.0169476 0.00158542 0)
(-0.0196674 0.000587471 0)
(-0.0198649 -0.000519469 0)
(-0.017422 -0.0016046 0)
(-0.0126026 -0.00246678 0)
(-0.00647389 -0.00265416 0)
(-0.00144327 -0.00142733 0)
(-0.00300049 0.00631346 0)
(-0.0131039 0.0117224 0)
(-0.0256524 0.0110621 0)
(-0.0355868 0.00769152 0)
(-0.0411713 0.00313678 0)
(-0.0416074 -0.0019735 0)
(-0.0366494 -0.00708272 0)
(-0.0267694 -0.0112182 0)
(-0.0138776 -0.0122858 0)
(-0.00304538 -0.00657415 0)
(-0.00407681 0.0141842 0)
(-0.0175033 0.0259443 0)
(-0.0336815 0.0240126 0)
(-0.0461988 0.01652 0)
(-0.0532477 0.00661695 0)
(-0.0540231 -0.00442558 0)
(-0.0481459 -0.0155403 0)
(-0.035859 -0.024771 0)
(-0.0191204 -0.027717 0)
(-0.00421881 -0.0150081 0)
(-0.00542147 0.0246092 0)
(-0.0228398 0.0440585 0)
(-0.0431681 0.0400932 0)
(-0.0585237 0.027442 0)
(-0.0672788 0.0112266 0)
(-0.0688135 -0.00679579 0)
(-0.0624927 -0.0253285 0)
(-0.0478825 -0.0415424 0)
(-0.0266196 -0.0480501 0)
(-0.00586945 -0.0268256 0)
(-0.00752871 0.0386899 0)
(-0.0308328 0.0673388 0)
(-0.0564907 0.0599456 0)
(-0.0750564 0.0406706 0)
(-0.0857014 0.0171178 0)
(-0.0884317 -0.0088466 0)
(-0.0823255 -0.036367 0)
(-0.0656566 -0.062309 0)
(-0.038963 -0.0756485 0)
(-0.00856008 -0.0443524 0)
(-0.010817 0.0585211 0)
(-0.0425654 0.0973789 0)
(-0.0739694 0.0837622 0)
(-0.0947436 0.0557872 0)
(-0.106359 0.0240802 0)
(-0.110346 -0.0101661 0)
(-0.1057 -0.0477987 0)
(-0.0887067 -0.0869022 0)
(-0.0575745 -0.113141 0)
(-0.0123472 -0.0718748 0)
(-0.0157254 0.0877634 0)
(-0.0585839 0.134973 0)
(-0.0921998 0.109346 0)
(-0.110037 0.0701074 0)
(-0.118851 0.0306071 0)
(-0.12285 -0.0103034 0)
(-0.121447 -0.0570693 0)
(-0.108623 -0.111861 0)
(-0.0792476 -0.160447 0)
(-0.0149254 -0.115607 0)
(-0.0217925 0.129956 0)
(-0.076851 0.173005 0)
(-0.0937597 0.126958 0)
(-0.0939528 0.0764432 0)
(-0.0914312 0.0334517 0)
(-0.0921818 -0.00827417 0)
(-0.0962652 -0.0583311 0)
(-0.0964173 -0.126156 0)
(-0.0857419 -0.206766 0)
(-0.00437795 -0.180112 0)
(-0.0311988 0.203757 0)
(-0.0646426 0.202853 0)
(-0.00146588 0.119056 0)
(0.0386581 0.067456 0)
(0.0612989 0.0320732 0)
(0.0660767 0.000273103 0)
(0.0525264 -0.0404619 0)
(0.024192 -0.109622 0)
(-0.024933 -0.226974 0)
(0.0543709 -0.245608 0)
(0.247629 0.107715 0)
(0.300283 0.0932905 0)
(0.424119 0.0533399 0)
(0.493984 0.0313473 0)
(0.530156 0.0171194 0)
(0.543995 0.00680286 0)
(0.533834 -0.00341544 0)
(0.49394 -0.0172924 0)
(0.385107 -0.0588229 0)
(0.32612 -0.100089 0)
)
;

boundaryField
{
    movingWall
    {
        type            calculated;
        value           uniform (1 0 0);
    }
    fixedWalls
    {
        type            calculated;
        value           uniform (0 0 0);
    }
    frontAndBack
    {
        type            empty;
    }
}


// ************************************************************************* //
