/*--------------------------------*- C++ -*----------------------------------*\
  =========                 |
  \\      /  F ield         | OpenFOAM: The Open Source CFD Toolbox
   \\    /   O peration     | Website:  https://openfoam.org
    \\  /    A nd           | Version:  13
     \\/     M anipulation  |
\*---------------------------------------------------------------------------*/
FoamFile
{
    format      ascii;
    class       scalarField;
    location    "3.92";
    object      p_all;
}
// * * * * * * * * * * * * * * * * * * * * * * * * * * * * * * * * * * * * * //


400
(
2.488070584e-08
-0.0003546512427
-0.0005217779334
-0.0004878901056
-0.000272636224
9.465599685e-05
0.0005820348758
0.001159857829
0.001799728155
0.002472211765
0.003144630463
0.003779868285
0.004336368575
0.004770446297
0.005040829336
0.005116094939
0.00498481447
0.00466794049
0.004264323729
0.003803364154
0.000382565279
5.324695104e-06
-0.000181695001
-0.0001628357784
1.961140524e-05
0.000340909132
0.0007740680523
0.001292602663
0.001869746691
0.002476746721
0.00308111035
0.003646489136
0.004132617185
0.004498647113
0.004708079866
0.004736286286
0.004579726057
0.004264826943
0.003869788526
0.003378145623
0.0005582960909
0.0001475309674
-6.232971699e-05
-4.463560378e-05
0.0001265302754
0.0004258085003
0.0008294560694
0.001314759851
0.001858055949
0.002432480903
0.003006353088
0.003542749591
0.0040001001
0.004336128768
0.00451344949
0.00450755113
0.004314945445
0.00395901457
0.003492225638
0.002877047808
0.0004517042321
6.572892488e-07
-0.0002350171029
-0.0002133150862
-3.783116419e-05
0.0002623194454
0.0006642605275
0.001148650192
0.001695575855
0.002280806698
0.002873207228
0.003433781006
0.003915550954
0.004268581946
0.004446385524
0.004415670945
0.004165970177
0.003715908776
0.003101381467
0.002292036195
-2.722051199e-05
-0.0005064798697
-0.000753765814
-0.000716943056
-0.0005232717964
-0.0002054001035
0.0002149713206
0.0007228564827
0.001303527583
0.001936933345
0.002592878702
0.003229942011
0.003792373432
0.004216904421
0.00443961528
0.004408929774
0.004099429844
0.003522780879
0.002703341905
0.00163636951
-0.0009607767867
-0.001454772693
-0.001704165197
-0.001644234107
-0.001424474395
-0.001080250779
-0.000630812799
-8.482433133e-05
0.000550921913
0.00126367374
0.002026239003
0.002797684541
0.003510973402
0.004084295515
0.004425633699
0.004450770562
0.00410503069
0.003384481981
0.002297787758
0.0008852203369
-0.002428426346
-0.002929200392
-0.003178119648
-0.003095516413
-0.002854175813
-0.002491492852
-0.002022532436
-0.001446655078
-0.0007582660235
4.271149592e-05
0.0009370153992
0.001902300166
0.002852294264
0.003685698108
0.004269966316
0.004465415174
0.004160415693
0.003312039822
0.001892977063
1.601447782e-05
-0.00451160327
-0.005017388234
-0.005271001465
-0.0051789623
-0.004939705928
-0.004592693523
-0.004147248107
-0.003589817163
-0.002896115666
-0.002041539499
-0.001010191691
0.0001658595128
0.001438804115
0.002681432972
0.003707733774
0.004288633697
0.004204680188
0.003321323533
0.00152460064
-0.0009613939206
-0.007291354681
-0.007804388407
-0.008075268069
-0.008001056061
-0.007810465269
-0.007547036704
-0.007214476522
-0.006783628689
-0.006204101509
-0.005413887483
-0.00435082862
-0.002984343338
-0.001329924825
0.0004959569739
0.002255263259
0.003589167135
0.004087657724
0.00342123823
0.001278136133
-0.00196308701
-0.01084246505
-0.01136578647
-0.01166994564
-0.01164936095
-0.0115724618
-0.01149252606
-0.01141131275
-0.01128464733
-0.01103081671
-0.01053481618
-0.009657006698
-0.008262000491
-0.006265589462
-0.00371154724
-0.0008555150242
0.001786833396
0.003503463349
0.003591554889
0.00132001163
-0.0027617855
-0.01522976491
-0.01576133305
-0.01610793373
-0.01616846049
-0.01626975508
-0.01648587099
-0.01682558546
-0.01723603578
-0.01760500838
-0.01775357256
-0.01743301498
-0.01634610674
-0.01421983532
-0.01091537696
-0.006609489363
-0.001945638192
0.001958817424
0.003771800634
0.001949484131
-0.002864629232
-0.02051461615
-0.02103447143
-0.02140510529
-0.02153231034
-0.02183648037
-0.02242962149
-0.02334152581
-0.02452265654
-0.02583868565
-0.02704526753
-0.02776346647
-0.02748475051
-0.0256450318
-0.02178848152
-0.01583843773
-0.008430027269
-0.001096467201
0.003932291863
0.003699093851
-0.001302728072
-0.02678567386
-0.02722494944
-0.02753563962
-0.02761839782
-0.02805054547
-0.02900391432
-0.03054440862
-0.03263868638
-0.03514232614
-0.03775345935
-0.03995995537
-0.04101557165
-0.03999024347
-0.03599617102
-0.02849153652
-0.01784265426
-0.005815209213
0.004348995296
0.007539126705
0.003694794964
-0.03424220458
-0.0344079028
-0.03444310966
-0.03419627154
-0.03451117398
-0.03564056966
-0.03769436116
-0.04065911904
-0.04438511137
-0.04852026064
-0.052428006
-0.0551291625
-0.05531601358
-0.05161777092
-0.0428618023
-0.02884657204
-0.01117371476
0.006162493899
0.01527040349
0.01511267345
-0.04337557957
-0.04275157859
-0.04204044852
-0.04090735639
-0.04063407252
-0.04155572101
-0.04381159296
-0.04738920353
-0.05211697721
-0.0575831082
-0.06302804903
-0.06726208426
-0.0686706188
-0.06532169515
-0.05547438233
-0.03813328404
-0.01428106892
0.01209007763
0.03015834574
0.03762098437
-0.05544024222
-0.0527090554
-0.05030167419
-0.04733514272
-0.04575187902
-0.04590832818
-0.04791314723
-0.05169826384
-0.0570200836
-0.06336598256
-0.06983008234
-0.07502057783
-0.07703523126
-0.07350533227
-0.06212448812
-0.04111188967
-0.01055009554
0.02683313756
0.05749961011
0.07819779751
-0.07314574441
-0.06485219761
-0.05892704889
-0.05273865673
-0.04899245445
-0.04782410765
-0.04916724992
-0.05279339756
-0.05830264923
-0.06501708794
-0.07183765499
-0.07712610912
-0.07868999855
-0.07381298388
-0.05968640007
-0.03379567418
0.004698387059
0.05617629666
0.1039505292
0.1456427768
-0.1052112446
-0.08140879629
-0.06851348972
-0.05691753884
-0.0499391607
-0.04691360643
-0.04730502993
-0.05054172659
-0.05594420158
-0.06258320084
-0.06911843347
-0.07365745482
-0.07373687123
-0.06620670381
-0.04781768403
-0.01513664347
0.03401661845
0.1020788559
0.1732900485
0.2514952505
-0.1646953031
-0.0967792255
-0.07361016666
-0.0544757956
-0.04441550237
-0.04035234089
-0.04060252626
-0.04404078342
-0.04966624399
-0.05632600105
-0.06250184982
-0.06613258482
-0.06449088993
-0.05413747039
-0.03127835228
0.008861879866
0.07055494358
0.1603732063
0.2700460373
0.4318562835
-0.3946887745
-0.135296333
-0.07388717209
-0.04730333482
-0.03400706758
-0.02956918625
-0.0305629531
-0.03487455464
-0.04117382069
-0.04819141939
-0.054361453
-0.05761329666
-0.05531027993
-0.04390452739
-0.01857785234
0.02746006219
0.1025111697
0.2279186678
0.4141452169
0.774450881
)


// ************************************************************************* //
