/*--------------------------------*- C++ -*----------------------------------*\
  =========                 |
  \\      /  F ield         | OpenFOAM: The Open Source CFD Toolbox
   \\    /   O peration     | Website:  https://openfoam.org
    \\  /    A nd           | Version:  13
     \\/     M anipulation  |
\*---------------------------------------------------------------------------*/
FoamFile
{
    format      ascii;
    class       volScalarField;
    location    "40";
    object      p;
}
// * * * * * * * * * * * * * * * * * * * * * * * * * * * * * * * * * * * * * //

dimensions      [0 2 -2 0 0 0 0];

internalField   nonuniform List<scalar> 
400
(
-1.887702791e-09
-0.0005284887111
-0.001173099381
-0.001671922012
-0.00190532376
-0.001824007903
-0.001403606562
-0.0006332685786
0.0004778421555
0.001885473542
0.00349531576
0.00515674885
0.006673767795
0.007836619984
0.008472058597
0.008499761564
0.007975579748
0.007105478086
0.006221233032
0.005668335962
0.0005355551751
-1.121854268e-05
-0.0005803370999
-0.0009787570816
-0.001153956578
-0.001079159576
-0.0007333108546
-0.0001014270633
0.0008167618364
0.001992071877
0.003350969666
0.004768500011
0.006075561467
0.007087197767
0.007648253071
0.007685426593
0.007245496395
0.006500366679
0.005711133105
0.005148617901
0.001205399965
0.0005210794641
-8.028475684e-05
-0.0004439680738
-0.0006040632505
-0.000568111841
-0.0003209016085
0.0001600836252
0.0008912088903
0.001865017931
0.003031834747
0.004288150611
0.005479690131
0.006425961955
0.00696554698
0.007010626853
0.006587670852
0.005836723821
0.004962853201
0.004230098072
0.001686400665
0.0008038988982
8.526670102e-05
-0.0003216456579
-0.0005291302166
-0.000577563895
-0.0004553037915
-0.000127593884
0.0004442441564
0.001279832425
0.002354792478
0.003581739173
0.00480663046
0.005829756993
0.006453333763
0.006545615653
0.006094846216
0.005214064556
0.004088898852
0.003054444787
0.001723350291
0.000640414455
-0.0002215105109
-0.0007156369992
-0.001020844707
-0.001202689734
-0.001247042995
-0.001100711914
-0.0006958197262
2.163908986e-05
0.001059139276
0.002349242625
0.003734993624
0.004984287935
0.005837900895
0.006086906788
0.005650733579
0.004602974752
0.003129723202
0.001697783235
0.001104766952
-0.000156786607
-0.001163442179
-0.001774393359
-0.002224672931
-0.002596913976
-0.002868182158
-0.002960501878
-0.002768912264
-0.00219439023
-0.001184232732
0.0002286470008
0.0018932033
0.003541990453
0.004831986353
0.00543517528
0.00515179962
0.003977815327
0.002097067099
0.0001694701915
-0.0003471057565
-0.001755029413
-0.00289963115
-0.003654427671
-0.004301234209
-0.004933581959
-0.005515513872
-0.005939383212
-0.00605505591
-0.005704476733
-0.004768106778
-0.003220921909
-0.001180024502
0.001063392434
0.003067439542
0.004335058941
0.00447024046
0.003313015646
0.001005703636
-0.001528704133
-0.00276903039
-0.004284819078
-0.005556574086
-0.006481666563
-0.007380691095
-0.008355151486
-0.009355565194
-0.01024288653
-0.01081537661
-0.01084116017
-0.01010783909
-0.008490629462
-0.006030605634
-0.003005259937
5.062491737e-05
0.002423742438
0.003417074407
0.00257835383
-9.532950482e-05
-0.003348822513
-0.006244846966
-0.007825328777
-0.009207870945
-0.01032322235
-0.01152546071
-0.01292571146
-0.01446537283
-0.01597701433
-0.01720504629
-0.01783146258
-0.01752327132
-0.01600987636
-0.01319167273
-0.009263234164
-0.004806716113
-0.00077113374
0.001728550076
0.001742182218
-0.00108583554
-0.005135482461
-0.01079579533
-0.01239354525
-0.01385783768
-0.01516132079
-0.01669205196
-0.01857879482
-0.02076377796
-0.02305958476
-0.02516063157
-0.02665753625
-0.02707569368
-0.02595445532
-0.02298253819
-0.01816999435
-0.01204579028
-0.005749697779
-0.0009010938555
0.0007922700984
-0.001724135686
-0.006538734908
-0.01638059079
-0.01794277004
-0.01943319267
-0.02087367472
-0.02269863964
-0.02507153698
-0.02795059967
-0.03114083388
-0.0342959992
-0.03691924909
-0.03838709205
-0.03801886533
-0.035237174
-0.02974906247
-0.02188081931
-0.01282287705
-0.00468765445
-0.0001914053926
-0.001568840679
-0.006882484199
-0.02291448581
-0.0243776305
-0.02578889299
-0.02722787181
-0.02921050782
-0.03196463321
-0.03548301517
-0.03957528477
-0.04386480504
-0.04777734449
-0.05055042293
-0.05128932895
-0.04908121201
-0.0432807201
-0.03383744576
-0.02176025786
-0.009483934675
-0.0008625227707
0.0001542697945
-0.004968827034
-0.03031891411
-0.03159156676
-0.0327301695
-0.03389272028
-0.03575149822
-0.03864386183
-0.04261401029
-0.04748062156
-0.05283939071
-0.05804572504
-0.0622098711
-0.06423222666
-0.06290992851
-0.05717689495
-0.04649195512
-0.03142648416
-0.01440523409
-0.0003051671451
0.004787643597
0.001201682048
-0.03862364379
-0.03953209881
-0.04004556774
-0.04046109636
-0.04174081818
-0.04438697408
-0.04849878559
-0.05388977433
-0.0601127677
-0.06644541959
-0.07187677017
-0.07512553927
-0.07472466786
-0.06922131074
-0.05754816648
-0.03965114352
-0.01753610484
0.003319421512
0.0145950404
0.01478761377
-0.04816982219
-0.04830353276
-0.04754111309
-0.04647412731
-0.04654889662
-0.04846698709
-0.05234885031
-0.05795704834
-0.06476032426
-0.07192862603
-0.0783155842
-0.08246358834
-0.08266726832
-0.07713945292
-0.06433584423
-0.0435306396
-0.01597372783
0.01292911972
0.03302080544
0.04032623172
-0.05995683327
-0.0583343013
-0.05508414628
-0.05145783695
-0.04958216304
-0.05028621195
-0.05360249704
-0.05915518788
-0.06626120747
-0.07393202389
-0.08085032046
-0.0853621481
-0.08552208529
-0.07923328635
-0.06453736476
-0.04010639831
-0.006292555445
0.03228052348
0.06447279056
0.08326221749
-0.0762322192
-0.07069273764
-0.06264488035
-0.05496600046
-0.05038061901
-0.049497505
-0.05204204342
-0.05737263886
-0.06457157062
-0.07243442194
-0.07943303167
-0.08368620633
-0.08298010553
-0.07487482069
-0.05697381202
-0.02736013088
0.01453518511
0.06546123539
0.1143597073
0.1501584319
-0.1041492634
-0.08792188185
-0.06997820866
-0.0562706279
-0.04837188769
-0.04577053521
-0.04756303494
-0.0526884247
-0.05990742844
-0.06776390463
-0.07451133982
-0.07804123097
-0.07586402182
-0.06513583195
-0.04286389906
-0.006225166348
0.04672686345
0.1152962301
0.1914567028
0.2582646454
-0.17595858
-0.114875681
-0.07360765181
-0.0518925755
-0.04118392629
-0.03757109654
-0.03926938727
-0.04470788822
-0.05227978105
-0.06031772027
-0.06693898637
-0.06989199193
-0.06649746504
-0.05357516798
-0.02739625594
0.01638004386
0.08270012347
0.1773437651
0.3053904737
0.4526582556
-0.355829574
-0.1552400054
-0.07042611646
-0.04278214712
-0.03135150318
-0.02759853331
-0.02976804311
-0.03594045899
-0.04417694765
-0.05268008358
-0.0595385416
-0.06249163559
-0.05881074787
-0.04516364253
-0.0172540289
0.03079202108
0.1083964038
0.2333290452
0.4347765253
0.7358447868
)
;

boundaryField
{
    movingWall
    {
        type            zeroGradient;
    }
    fixedWalls
    {
        type            zeroGradient;
    }
    frontAndBack
    {
        type            empty;
    }
}


// ************************************************************************* //
