/*--------------------------------*- C++ -*----------------------------------*\
  =========                 |
  \\      /  F ield         | OpenFOAM: The Open Source CFD Toolbox
   \\    /   O peration     | Website:  https://openfoam.org
    \\  /    A nd           | Version:  13
     \\/     M anipulation  |
\*---------------------------------------------------------------------------*/
FoamFile
{
    format      ascii;
    class       surfaceScalarField;
    location    "40";
    object      phi;
}
// * * * * * * * * * * * * * * * * * * * * * * * * * * * * * * * * * * * * * //

dimensions      [0 3 -1 0 0 0 0];

internalField   nonuniform List<scalar> 
760
(
-1.321903464e-05
1.321838222e-05
-7.201784494e-05
5.879881705e-05
-0.0001620727171
9.005480474e-05
-0.0002652229895
0.0001031501232
-0.0003682427465
0.0001030198464
-0.0004615044747
9.326211578e-05
-0.000537749893
7.624576516e-05
-0.0005912418761
5.349188938e-05
-0.0006175091858
2.626673683e-05
-0.0006135894381
-3.920419818e-06
-0.0005784602479
-3.512951239e-05
-0.0005138430168
-6.461708975e-05
-0.000424659597
-8.918300385e-05
-0.0003192817264
-0.0001053774941
-0.0002092252926
-0.0001100563012
-0.0001081384984
-0.000101086889
-2.992495211e-05
-7.821372376e-05
1.414936628e-05
-4.407445438e-05
2.190958686e-05
-7.76028911e-06
2.190954351e-05
-6.870348007e-05
8.192185466e-05
-0.0002457757012
0.000235871151
-0.0004934732021
0.0003377525251
-0.0007722778434
0.0003819546147
-0.001050409575
0.0003811510282
-0.001303006524
0.0003458586004
-0.001510604608
0.0002838439991
-0.001657872418
0.0002007605015
-0.001733199729
0.0001015949815
-0.001729305448
-7.814231819e-06
-0.001643831236
-0.0001206038537
-0.001481414016
-0.0002270348007
-0.001254381944
-0.0003162155243
-0.0009832949616
-0.0003764646251
-0.000696141627
-0.0003972095274
-0.0004257314119
-0.0003714969446
-0.0002049932141
-0.0002989518379
-5.981226715e-05
-0.0001892553509
-4.920809593e-07
-6.708036692e-05
2.141733495e-05
-0.0001229342314
0.0002048560107
-0.0004149725517
0.0005279093445
-0.0008086683493
0.0007314486191
-0.001247165159
0.0008204518758
-0.001684661519
0.0008186475334
-0.002084430428
0.0007456271204
-0.002416966093
0.0006163789786
-0.00265857684
0.0004423707594
-0.002790992095
0.0002340102382
-0.002802413901
3.60787343e-06
-0.002687902319
-0.0002351150727
-0.002452961749
-0.0004619752238
-0.002114171915
-0.0006550054793
-0.001700374471
-0.0007902622834
-0.001251822534
-0.0008457615659
-0.0008167447728
-0.0008065746387
-0.0004446232983
-0.0006710731689
-0.000176232037
-0.0004576465135
-3.22121291e-05
-0.0002111001984
-1.07948962e-05
-0.000172078241
0.000376934326
-0.0005725608222
0.0009283915496
-0.001105967978
0.001264855537
-0.001698036611
0.00141252067
-0.002290597105
0.00141120849
-0.002837254386
0.001292284808
-0.003300217327
0.001079341973
-0.003648292265
0.000790445417
-0.003856339286
0.0004420569423
-0.00390581648
5.308498462e-05
-0.003787747986
-0.000353183489
-0.003504025045
-0.0007456979804
-0.003071272616
-0.001087757789
-0.002522630988
-0.001338903932
-0.001907996325
-0.001460396318
-0.001290905679
-0.001423665326
-0.0007407542739
-0.001221224522
-0.0003202708742
-0.0008781298227
-7.110217825e-05
-0.0004602688467
-8.18971198e-05
-0.0002170220068
0.0005939565891
-0.0007188331377
0.001430202694
-0.001385655781
0.001931677854
-0.002127123681
0.002153988231
-0.002874374305
0.002158459028
-0.00357319544
0.001991106148
-0.00417897937
0.001685126194
-0.004653584446
0.001265050627
-0.00496419881
0.0007526712284
-0.005084017619
0.0001729036407
-0.004995023555
-0.0004421776608
-0.004691189227
-0.001049532299
-0.004183518318
-0.001595428614
-0.003504389943
-0.002018032251
-0.002710450257
-0.002254336024
-0.001881578048
-0.002252537592
-0.001113233257
-0.001989569337
-0.000500821083
-0.001490541971
-0.0001191421384
-0.0008419477769
-0.0002010392031
-0.0002573668333
0.0008513234367
-0.0008513397813
0.002024176001
-0.001642296683
0.002722634877
-0.002526557384
0.003038248788
-0.003426901347
0.003058802741
-0.004283388977
0.002847593633
-0.005046214946
0.002447952215
-0.005671018256
0.001889854097
-0.006116751578
0.001198404673
-0.00634598206
0.0004021341514
-0.006327843522
-0.0004603162494
-0.006042476412
-0.001334899467
-0.005488323872
-0.002149581168
-0.004689982098
-0.002816374005
-0.003705727667
-0.003238590445
-0.002631183433
-0.003327081851
-0.001594226992
-0.00302652582
-0.0007363872536
-0.002348381737
-0.0001821206907
-0.001396214359
-0.0003831598145
-0.0002911842689
0.001142507457
-0.0009641253549
0.002697117181
-0.001864163783
0.003622673538
-0.002878145648
0.004052230806
-0.003923464646
0.004104121718
-0.004937001717
0.003861130564
-0.005865888985
0.003376839358
-0.006661002197
0.002684967282
-0.007273439869
0.001810842395
-0.007653973494
0.000782667845
-0.007755805924
-0.0003584837854
-0.007539788715
-0.001550916689
-0.006984027766
-0.002705342148
-0.006095814561
-0.003704587225
-0.004925704347
-0.004408700653
-0.003579479979
-0.004673306216
-0.002220388282
-0.004385617543
-0.001050845708
-0.003517924359
-0.0002684678185
-0.002178592274
-0.00065162759
-0.0003159655968
0.001458472955
-0.001048737702
0.003429889091
-0.002034531842
0.004608467685
-0.003154903868
0.005172602965
-0.004325133177
0.005274351156
-0.005481849349
0.005017846768
-0.006571932241
0.004466922193
-0.007544121036
0.003657155997
-0.008343811267
0.002610532577
-0.00891113043
0.001349987008
-0.009182806263
-8.680792598e-05
-0.009097012843
-0.001636710084
-0.008604584377
-0.003197770611
-0.00768419919
-0.004624972417
-0.00636406857
-0.005728831264
-0.004746043508
-0.006291331263
-0.003022882308
-0.006108778748
-0.001469581345
-0.005071225358
-0.0003882445551
-0.003259929077
-0.00103987215
-0.000329195526
0.001787668611
-0.00109644303
0.004197136468
-0.002135079721
0.005647104244
-0.003325368437
0.006362891653
-0.004583651609
0.006532634391
-0.005849373311
0.006283568551
-0.007072574917
0.00569012384
-0.008203824734
0.004788405804
-0.009187258316
0.00359396612
-0.009956893642
0.002119622297
-0.01043606946
0.0003923678818
-0.01054224976
-0.001530529769
-0.01019503504
-0.00354498532
-0.00933408925
-0.005485918191
-0.007946629091
-0.007116291404
-0.006105926816
-0.008132033513
-0.004012930259
-0.008201775293
-0.002014592989
-0.007069562636
-0.0005528022114
-0.004721719852
-0.001592674387
-0.0003297928237
0.002117461549
-0.00110170179
0.004969045496
-0.002151423353
0.00669682574
-0.003361077944
0.007572546164
-0.004650845688
0.007822402103
-0.005965956954
0.007598679839
-0.007263379454
0.006987546388
-0.008500565986
0.006025592379
-0.009627011825
0.004720411973
-0.01057860278
0.003071213233
-0.01127459534
0.001088360424
-0.01161814885
-0.001186976274
-0.01150162916
-0.003661505016
-0.01082052624
-0.006167021103
-0.009503001447
-0.008433816176
-0.007560608874
-0.01007442606
-0.005160873302
-0.01060151085
-0.002696115567
-0.009534320357
-0.0007741503252
-0.006643685085
-0.002366824728
-0.0003199349541
0.002437396483
-0.001066686694
0.005715797329
-0.002080423907
0.007710562984
-0.003246814645
0.008738936877
-0.004492308061
0.00906789547
-0.005770873466
0.008877245214
-0.007050316275
0.008266989205
-0.008300542279
0.00727581842
-0.009484302191
0.005904171923
-0.0105499627
0.004136873756
-0.01142562081
0.001964018535
-0.01201417231
-0.0005984247912
-0.0121937947
-0.003481882648
-0.01182096892
-0.006539846893
-0.01075537869
-0.009499406405
-0.008913750646
-0.01191605409
-0.006370857817
-0.01314440366
-0.003498965166
-0.01240621299
-0.001063151374
-0.00907949887
-0.0034299761
-0.0003074094523
0.002744805872
-0.001006587491
0.006414975374
-0.00193835481
0.008642330352
-0.002991898976
0.00979248107
-0.004102813487
0.01017880996
-0.005237449038
0.01001188073
-0.006378628085
0.009408168233
-0.007514083868
0.008411274213
-0.008627331816
0.007017419899
-0.009689844211
0.005199386179
-0.01065314239
0.002927316724
-0.01143756785
0.0001860006742
-0.01192945621
-0.002989994303
-0.01196499049
-0.006504312626
-0.011343739
-0.01012065791
-0.009868967814
-0.01339082528
-0.007460114246
-0.01555325723
-0.004363834552
-0.01550249268
-0.00142553563
-0.01201779779
-0.004855511721
-0.0003089282632
0.00305373413
-0.0009555674801
0.007061614538
-0.001768490097
0.009455252992
-0.002639390621
0.01066338163
-0.003518262134
0.01105768148
-0.004389722753
0.01088334132
-0.005256719385
0.01027516484
-0.006129514721
0.009284069541
-0.007017707303
0.007905612492
-0.007923326843
0.006105005741
-0.008832213416
0.003836203321
-0.009704214696
0.00105800196
-0.01045072651
-0.002243482494
-0.01092412019
-0.006030918953
-0.01089502859
-0.01014974952
-0.01006488821
-0.01422096566
-0.008157305557
-0.01746083988
-0.005167631657
-0.01849216658
-0.001854348998
-0.01533108045
-0.006709860713
-0.0003552700577
0.003409004226
-0.0009733332467
0.007679677686
-0.001646057551
0.01012797731
-0.002268710538
0.01128603465
-0.002816840204
0.01160581117
-0.003303693855
0.01137019497
-0.003759410304
0.01073088127
-0.00422092502
0.009745584237
-0.004726147209
0.008410834674
-0.005309762984
0.006688621525
-0.005996656905
0.004523097264
-0.00679179852
0.001853143596
-0.007660585813
-0.001374695189
-0.008503029582
-0.005188475182
-0.009113178354
-0.009539600752
-0.009142508227
-0.0141916358
-0.00812840076
-0.01847494735
-0.005711156615
-0.02090941073
-0.002318284792
-0.01872395227
-0.009028145504
-0.0005003770527
0.003909381296
-0.001151296577
0.00833059721
-0.00167482118
0.01065150193
-0.00198164053
0.01159285403
-0.002095672691
0.01171984335
-0.002075735927
0.01135025821
-0.001988477478
0.01064362281
-0.001901151622
0.009658258359
-0.001878927452
0.008388610481
-0.001985971436
0.006795665496
-0.002282467256
0.004819593085
-0.002818756008
0.002389432361
-0.003622152434
-0.0005712987484
-0.004668843084
-0.004141784519
-0.00583463512
-0.00837380871
-0.006807663855
-0.01321860706
-0.007016668922
-0.01826594228
-0.005716401078
-0.02220967857
-0.0027395671
-0.02170078625
-0.0117677126
-0.000830885427
0.004740266686
-0.001604832963
0.009104544769
-0.001950979538
0.01099764853
-0.001839383032
0.01148125752
-0.00138543512
0.01126589545
-0.0007181320032
0.0106829551
4.821295802e-05
0.009877277847
0.0008164044222
0.008890066887
0.001495360365
0.007709654521
0.00199842391
0.006292601935
0.002238517313
0.004579499673
0.002128354714
0.002499594963
0.001583159896
-2.610392675e-05
0.0005450313699
-0.003103655981
-0.0009843147479
-0.006844462581
-0.002828401911
-0.01137451989
-0.004459126079
-0.01663521811
-0.004810489582
-0.02185831507
-0.002944290933
-0.02356698489
-0.01471200353
-0.001465682588
0.006205949207
-0.002379876751
0.01001873895
-0.002373445038
0.01099121683
-0.001603542119
0.01071135459
-0.0003496266016
0.01001197993
0.001163642358
0.009169686159
0.002771841837
0.008269078392
0.004349533952
0.007312374791
0.005791623569
0.006267564915
0.006998014814
0.005086210693
0.007865493229
0.003712021255
0.008282285285
0.002082802903
0.008123822249
0.0001323591152
0.007264496787
-0.00224433052
0.005585213082
-0.00516517887
0.003073873047
-0.008863179846
7.897192928e-05
-0.01364031699
-0.002445747385
-0.01933359575
-0.002601078025
-0.02341165425
-0.01731308156
-0.002365504039
0.008571453194
-0.002963808783
0.0106170437
-0.001922814147
0.009950222202
8.111522979e-05
0.008707425214
0.002534887063
0.007558208123
0.005140255697
0.006564317567
0.007719753594
0.005689580545
0.01015462157
0.004877506859
0.01234957357
0.004072612937
0.01421200238
0.003223781888
0.0156405403
0.002283483334
0.01651758906
0.001205754117
0.01669709975
-4.71515783e-05
0.01602712632
-0.001574357101
0.01430509011
-0.003443142663
0.0113328308
-0.005890920536
0.007055613725
-0.009363099919
0.002201623634
-0.01447960566
-0.001027320556
-0.02018271006
-0.01834040211
-0.002150342888
0.01072179609
-7.19946689e-05
0.008538695482
0.003741898404
0.006136329141
0.007719772778
0.00472955085
0.01156187095
0.003716109966
0.01514101049
0.002985178037
0.01839885611
0.002431734928
0.02130155549
0.001974807475
0.02381243369
0.001561734727
0.02587973484
0.001156480733
0.02743056901
0.0007326491412
0.02836472822
0.0002715949041
0.02857561749
-0.0002580408651
0.02788766527
-0.0008864048882
0.0260993413
-0.00165481869
0.02290826567
-0.002699844904
0.01790696684
-0.004361801084
0.01076690815
-0.007339546962
0.002912180367
-0.01232798228
-0.01542822175
0.01072179615
0.01926049165
0.02539682076
0.03012637156
0.03384248148
0.03682765946
0.03925939436
0.04123420183
0.04279593657
0.04395241732
0.04468506648
0.0449566614
0.04469862055
0.04381221566
0.04215739697
0.03945755207
0.03509575099
0.02775620403
0.01542822175
)
;

boundaryField
{
    movingWall
    {
        type            calculated;
        value           uniform 0;
    }
    fixedWalls
    {
        type            calculated;
        value           uniform 0;
    }
    frontAndBack
    {
        type            empty;
    }
}


// ************************************************************************* //
