/*--------------------------------*- C++ -*----------------------------------*\
  =========                 |
  \\      /  F ield         | OpenFOAM: The Open Source CFD Toolbox
   \\    /   O peration     | Website:  https://openfoam.org
    \\  /    A nd           | Version:  13
     \\/     M anipulation  |
\*---------------------------------------------------------------------------*/
FoamFile
{
    format      ascii;
    class       surfaceScalarField;
    location    "40";
    object      phi_0;
}
// * * * * * * * * * * * * * * * * * * * * * * * * * * * * * * * * * * * * * //

dimensions      [0 3 -1 0 0 0 0];

internalField   nonuniform List<scalar> 
760
(
-1.32190347e-05
1.321837529e-05
-7.201787367e-05
5.879884065e-05
-0.0001620727651
9.005488523e-05
-0.0002652229246
0.0001031501472
-0.0003682426038
0.0001030196931
-0.0004615044216
9.326185811e-05
-0.0005377500318
7.624564071e-05
-0.0005912421187
5.349207308e-05
-0.0006175093338
2.626716042e-05
-0.0006135893747
-3.920014554e-06
-0.0005784600455
-3.512934597e-05
-0.0005138428179
-6.461720042e-05
-0.0004246595118
-8.918325949e-05
-0.0003192817682
-0.0001053777133
-0.0002092253954
-0.0001100563829
-0.0001081385934
-0.0001010868499
-2.992501677e-05
-7.821363364e-05
1.41493113e-05
-4.407436231e-05
2.190953526e-05
-7.760210822e-06
2.190958894e-05
-6.870344663e-05
8.192182263e-05
-0.0002457756714
0.0002358710841
-0.0004934733122
0.0003377525519
-0.0007722779703
0.0003819547894
-0.001050409545
0.0003811512132
-0.001303006321
0.0003458585937
-0.001510604399
0.0002838437431
-0.001657872391
0.0002007601522
-0.001733199902
0.0001015947701
-0.001729305658
-7.814206861e-06
-0.001643831347
-0.0001206036681
-0.001481413978
-0.0002270346203
-0.001254381815
-0.0003162154757
-0.0009832948499
-0.0003764647101
-0.0006961415972
-0.0003972096459
-0.0004257314495
-0.0003714969962
-0.0002049932707
-0.0002989518
-5.981231901e-05
-0.0001892552719
-4.921646816e-07
-6.708029113e-05
2.141743452e-05
-0.0001229342305
0.0002048560483
-0.0004149724249
0.0005279092684
-0.0008086683025
0.0007314484623
-0.001247165274
0.0008204518078
-0.001684661699
0.0008186476564
-0.002084430503
0.0007456273659
-0.00241696599
0.0006163791675
-0.002658576655
0.0004423707674
-0.002790991996
0.0002340101024
-0.002802413926
3.60775454e-06
-0.002687902437
-0.0002351151219
-0.002452961862
-0.0004619751655
-0.002114171937
-0.00065500538
-0.001700374396
-0.0007902622305
-0.001251822431
-0.0008457615912
-0.0008167447143
-0.0008065747047
-0.0004446233117
-0.0006710732172
-0.0001762320943
-0.0004576465146
-3.221220474e-05
-0.0002111001619
-1.079480816e-05
-0.0001720783547
0.000376934414
-0.0005725607799
0.0009283916559
-0.001105967837
0.001264855497
-0.001698036518
0.001412520505
-0.002290597149
0.001411208335
-0.002837254524
0.001292284784
-0.00330021743
0.001079342083
-0.003648292246
0.0007904455565
-0.003856339182
0.0004420570053
-0.003905816408
5.308495524e-05
-0.003787747979
-0.0003531835461
-0.003504025111
-0.0007456980061
-0.003071272691
-0.001087757759
-0.002522631002
-0.00133890388
-0.001907996267
-0.001460396298
-0.001290905601
-0.001423665363
-0.0007407542369
-0.001221224593
-0.0003202708946
-0.0008781298808
-7.110221228e-05
-0.0004602688572
-8.189706716e-05
-0.0002170221048
0.0005939565467
-0.0007188332477
0.001430202804
-0.001385655775
0.001931677993
-0.002127123578
0.002153988274
-0.002874374203
0.002158458949
-0.003573195426
0.001991106024
-0.004178979439
0.001685126124
-0.004653584515
0.001265050648
-0.004964198814
0.0007526712971
-0.005084017578
0.0001729036957
-0.00499502351
-0.0004421776433
-0.004691189227
-0.001049532307
-0.004183518367
-0.001595428614
-0.003504389993
-0.002018032229
-0.002710450263
-0.002254335996
-0.001881578006
-0.002252537593
-0.001113233206
-0.001989569379
-0.0005008210534
-0.00149054203
-0.0001191421144
-0.0008419478154
-0.0002010392166
-0.0002573667742
0.0008513233214
-0.0008513398596
0.00202417593
-0.001642296781
0.002722634927
-0.002526557413
0.003038248894
-0.003426901296
0.00305880281
-0.004283388902
0.002847593618
-0.005046214912
0.002447952141
-0.005671018269
0.001889854025
-0.006116751599
0.00119840464
-0.006345982064
0.0004021341527
-0.006327843505
-0.0004603162339
-0.006042476401
-0.001334899454
-0.005488323891
-0.002149581157
-0.004689982142
-0.002816373984
-0.003705727704
-0.003238590412
-0.002631183437
-0.003327081822
-0.001594226958
-0.003026525816
-0.0007363872005
-0.00234838176
-0.0001821206416
-0.001396214392
-0.0003831598629
-0.0002911841608
0.001142507456
-0.0009641253049
0.002697117083
-0.001864163819
0.003622673462
-0.002878145718
0.00405223081
-0.003923464689
0.004104121782
-0.004937001708
0.003861130628
-0.005865888949
0.003376839376
-0.006661002167
0.002684967252
-0.00727343985
0.001810842341
-0.007653973482
0.0007826677956
-0.007755805911
-0.0003584838148
-0.007539788707
-0.001550916697
-0.006984027773
-0.00270534214
-0.006095814589
-0.003704587204
-0.004925704388
-0.004408700618
-0.00357948001
-0.004673306174
-0.002220388277
-0.004385617506
-0.001050845664
-0.003517924342
-0.0002684677817
-0.002178592283
-0.000651627628
-0.0003159655875
0.001458473037
-0.001048737629
0.003429889102
-0.002034531792
0.004608467625
-0.003154903872
0.005172602903
-0.00432513322
0.005274351141
-0.005481849392
0.005017846801
-0.006571932262
0.004466922244
-0.007544121033
0.00365715603
-0.008343811244
0.002610532576
-0.008911130396
0.001349986978
-0.009182806227
-8.680796763e-05
-0.009097012819
-0.001636710122
-0.008604584369
-0.003197770633
-0.007684199201
-0.00462497242
-0.006364068602
-0.005728831248
-0.004746043546
-0.006291331231
-0.003022882325
-0.006108778707
-0.001469581328
-0.005071225322
-0.0003882445458
-0.003259929064
-0.001039872156
-0.000329195591
0.001787668645
-0.001096443032
0.004197136529
-0.002135079673
0.005647104257
-0.003325368389
0.00636289162
-0.004583651596
0.006532634348
-0.005849373335
0.006283568535
-0.007072574959
0.005690123861
-0.008203824772
0.004788405847
-0.00918725833
0.003593966159
-0.009956893622
0.00211962231
-0.01043606942
0.0003923678636
-0.01054224972
-0.001530529807
-0.01019503501
-0.003544985363
-0.00933408924
-0.005485918224
-0.007946629104
-0.007116291421
-0.006105926844
-0.008132033512
-0.004012930282
-0.008201775275
-0.002014592996
-0.007069562611
-0.0005528022206
-0.004721719834
-0.001592674372
-0.0003297928623
0.002117461519
-0.001101701843
0.004969045513
-0.002151423356
0.006696825771
-0.003361077907
0.00757254617
-0.004650845646
0.007822402078
-0.005965956936
0.007598679806
-0.007263379471
0.006987546373
-0.00850056603
0.006025592395
-0.009627011869
0.00472041201
-0.01057860279
0.003071213271
-0.01127459533
0.001088360443
-0.01161814882
-0.001186976281
-0.01150162912
-0.003661505044
-0.01082052621
-0.006167021141
-0.009503001439
-0.008433816212
-0.007560608884
-0.01007442609
-0.005160873317
-0.01060151086
-0.002696115583
-0.009534320355
-0.0007741503365
-0.006643685077
-0.002366824714
-0.0003199349421
0.002437396457
-0.001066686732
0.005715797306
-0.002080423936
0.00771056299
-0.003246814643
0.008738936888
-0.004492308029
0.009067895462
-0.005770873427
0.008877245185
-0.007050316258
0.008266989174
-0.008300542299
0.007275818407
-0.009484302234
0.005904171937
-0.01054996273
0.004136873791
-0.01142562083
0.001964018575
-0.0120141723
-0.0005984247631
-0.01219379467
-0.003481882642
-0.01182096889
-0.006539846906
-0.01075537867
-0.009499406429
-0.00891375064
-0.01191605412
-0.00637085782
-0.01314440368
-0.003498965176
-0.012406213
-0.001063151379
-0.009079498873
-0.003429976098
-0.0003074094362
0.002744805883
-0.001006587497
0.006414975358
-0.001938354834
0.008642330346
-0.002991898995
0.009792481074
-0.004102813478
0.01017880996
-0.005237449002
0.01001188071
-0.00637862805
0.009408168201
-0.007514083858
0.008411274183
-0.008627331835
0.007017419888
-0.009689844245
0.005199386193
-0.01065314242
0.002927316757
-0.01143756787
0.0001860007107
-0.01192945621
-0.00298999427
-0.01196499048
-0.006504312608
-0.01134373898
-0.0101206579
-0.009868967802
-0.01339082528
-0.007460114241
-0.01555325724
-0.004363834551
-0.01550249269
-0.001425535628
-0.0120177978
-0.004855511727
-0.0003089282741
0.003053734148
-0.0009555674754
0.007061614543
-0.00176849011
0.009455252997
-0.002639390649
0.01066338164
-0.003518262146
0.01105768149
-0.004389722733
0.01088334132
-0.005256719348
0.01027516482
-0.006129514692
0.009284069507
-0.007017707294
0.007905612461
-0.007923326855
0.006105005726
-0.008832213444
0.003836203327
-0.009704214719
0.001058001985
-0.01045072652
-0.002243482462
-0.01092412019
-0.006030918923
-0.01089502858
-0.0101497495
-0.0100648882
-0.01422096565
-0.008157305551
-0.01746083988
-0.005167631652
-0.01849216658
-0.001854348994
-0.01533108045
-0.006709860717
-0.0003552700812
0.003409004219
-0.0009733332426
0.007679677696
-0.00164605756
0.01012797732
-0.002268710567
0.01128603467
-0.00281684023
0.01160581118
-0.003303693856
0.01137019498
-0.003759410282
0.01073088126
-0.004220924989
0.009745584216
-0.004726147185
0.008410834641
-0.005309762974
0.006688621492
-0.005996656912
0.004523097241
-0.006791798537
0.00185314359
-0.007660585831
-0.00137469518
-0.008503029595
-0.005188475164
-0.00911317836
-0.009539600732
-0.009142508228
-0.01419163578
-0.008128400758
-0.01847494734
-0.005711156611
-0.02090941072
-0.002318284789
-0.01872395227
-0.009028145504
-0.0005003770587
0.003909381264
-0.001151296566
0.008330597207
-0.001674821188
0.01065150194
-0.001981640558
0.01159285404
-0.002095672724
0.01171984337
-0.002075735946
0.01135025823
-0.001988477478
0.01064362283
-0.001901151606
0.009658258368
-0.001878927428
0.008388610473
-0.001985971415
0.006795665476
-0.002282467245
0.004819593059
-0.00281875601
0.002389432339
-0.003622152443
-0.0005712987628
-0.004668843096
-0.004141784522
-0.00583463513
-0.008373808705
-0.006807663862
-0.01321860705
-0.007016668926
-0.01826594228
-0.005716401078
-0.02220967857
-0.0027395671
-0.02170078625
-0.0117677126
-0.0008308854029
0.004740266656
-0.001604832939
0.009104544755
-0.001950979541
0.01099764852
-0.001839383049
0.01148125752
-0.001385435146
0.01126589546
-0.0007181320278
0.01068295513
4.821294321e-05
0.009877277884
0.0008164044192
0.008890066921
0.001495360374
0.007709654543
0.001998423926
0.00629260194
0.002238517328
0.004579499664
0.002128354721
0.002499594946
0.001583159899
-2.61039418e-05
0.0005450313649
-0.003103655995
-0.0009843147558
-0.00684446259
-0.002828401919
-0.01137451989
-0.004459126085
-0.01663521811
-0.004810489584
-0.02185831506
-0.002944290933
-0.02356698489
-0.01471200353
-0.001465682546
0.006205949202
-0.002379876718
0.01001873894
-0.002373445034
0.01099121681
-0.00160354212
0.01071135458
-0.000349626611
0.01001197993
0.001163642342
0.00916968617
0.002771841818
0.008269078414
0.004349533936
0.007312374818
0.00579162356
0.006267564939
0.006998014814
0.005086210709
0.007865493236
0.003712021262
0.008282285297
0.002082802902
0.008123822253
0.0001323591105
0.007264496789
-0.002244330528
0.00558521308
-0.005165178878
0.003073873042
-0.008863179851
7.897192778e-05
-0.01364031699
-0.002445747387
-0.01933359575
-0.002601078026
-0.02341165425
-0.01731308156
-0.002365504003
0.008571453217
-0.002963808755
0.0106170437
-0.001922814137
0.00995022217
8.111523949e-05
0.008707425175
0.002534887068
0.007558208082
0.005140255693
0.006564317531
0.00771975358
0.005689580521
0.01015462155
0.004877506852
0.01234957356
0.004072612947
0.01421200237
0.003223781908
0.01564054029
0.002283483359
0.01651758907
0.001205754139
0.01669709975
-4.715156925e-05
0.01602712633
-0.001574357093
0.01430509011
-0.003443142658
0.0113328308
-0.005890920533
0.007055613722
-0.009363099918
0.002201623632
-0.01447960566
-0.001027320557
-0.02018271006
-0.01834040211
-0.002150342882
0.01072179611
-7.199465686e-05
0.008538695475
0.003741898406
0.006136329111
0.007719772785
0.004729550805
0.01156187096
0.00371610992
0.0151410105
0.002985178
0.01839885611
0.002431734908
0.02130155549
0.001974807474
0.02381243369
0.001561734742
0.02587973483
0.001156480756
0.02743056901
0.0007326491653
0.02836472821
0.0002715949224
0.02857561749
-0.0002580408509
0.02788766527
-0.0008864048807
0.0260993413
-0.001654818687
0.02290826567
-0.002699844903
0.01790696684
-0.004361801084
0.01076690815
-0.007339546962
0.002912180366
-0.01232798228
-0.01542822175
0.01072179613
0.01926049162
0.02539682075
0.03012637157
0.0338424815
0.03682765949
0.03925939439
0.04123420185
0.04279593657
0.04395241731
0.04468506647
0.04495666139
0.04469862054
0.04381221566
0.04215739697
0.03945755207
0.03509575098
0.02775620402
0.01542822175
)
;

boundaryField
{
    movingWall
    {
        type            calculated;
        value           uniform 0;
    }
    fixedWalls
    {
        type            calculated;
        value           uniform 0;
    }
    frontAndBack
    {
        type            empty;
    }
}


// ************************************************************************* //
