/*--------------------------------*- C++ -*----------------------------------*\
  =========                 |
  \\      /  F ield         | OpenFOAM: The Open Source CFD Toolbox
   \\    /   O peration     | Website:  https://openfoam.org
    \\  /    A nd           | Version:  13
     \\/     M anipulation  |
\*---------------------------------------------------------------------------*/
FoamFile
{
    format      ascii;
    class       surfaceScalarField;
    location    "40";
    object      phi_0;
}
// * * * * * * * * * * * * * * * * * * * * * * * * * * * * * * * * * * * * * //

dimensions      [0 3 -1 0 0 0 0];

internalField   nonuniform List<scalar> 
760
(
4.585318948e-06
-4.585046591e-06
-3.887076401e-05
4.345632802e-05
-0.000131539608
9.266868217e-05
-0.0002574825692
0.000125942999
-0.000400769601
0.0001432864876
-0.0005480082478
0.0001472395571
-0.0006873215492
0.0001393130258
-0.0008069655166
0.0001196439322
-0.0008947714211
8.780667035e-05
-0.0009388465536
4.407524507e-05
-0.0009294913202
-9.356183411e-06
-0.0008619707964
-6.752037309e-05
-0.0007393331578
-0.0001226373595
-0.0005742993316
-0.0001650346373
-0.0003890740491
-0.0001852253157
-0.000212286872
-0.0001767860985
-7.3054307e-05
-0.0001392322038
6.896140099e-06
-7.995112902e-05
2.265101712e-05
-1.575531238e-05
2.265162085e-05
-4.729981861e-05
4.271454445e-05
-0.000209725934
0.0002058824284
-0.0004738529926
0.000356794418
-0.0008070527871
0.0004591442905
-0.00117501019
0.0005112416105
-0.001546138829
0.0005183692329
-0.001890915394
0.0004840913166
-0.002180419445
0.0004091487804
-0.002386240675
0.000293627554
-0.0024825229
0.0001403576142
-0.002450014944
-4.186627202e-05
-0.002281196054
-0.000236340728
-0.001985298368
-0.0004185329602
-0.001591285161
-0.0005590456707
-0.001147073677
-0.0006294372087
-0.0007134692941
-0.0006103915337
-0.0003524819535
-0.000500218449
-0.0001114823533
-0.000320948796
-5.885050668e-06
-0.0001213518416
1.676784646e-05
-0.0001119645185
0.0001546792337
-0.0004058823961
0.000499801281
-0.0008355701272
0.0007864810357
-0.001351876311
0.0009754501273
-0.001907792144
0.001067157149
-0.002459762965
0.001070341713
-0.002966442227
0.0009907718623
-0.003387482763
0.0008301898057
-0.003684096065
0.0005902388818
-0.003821940787
0.0002782021125
-0.003776059253
-8.774714625e-05
-0.003536902963
-0.000475496547
-0.003116193255
-0.0008392424726
-0.002550847038
-0.001124391969
-0.001902892025
-0.001277391968
-0.001253165987
-0.001260116456
-0.0006874691173
-0.001065914028
-0.0002763512062
-0.0007320671396
-5.337033469e-05
-0.0003443303317
-3.660168347e-05
-0.0001735159504
0.000328194776
-0.0005943950544
0.0009206783063
-0.001180387598
0.001372472103
-0.001863405303
0.001658467573
-0.002585312226
0.001789064435
-0.003294352265
0.001779381739
-0.00394189618
0.001638315544
-0.004480645065
0.001368940351
-0.004865149887
0.000974743494
-0.00505475194
0.0004678043013
-0.005018575075
-0.0001239231697
-0.004741855924
-0.0007522132188
-0.004232789924
-0.0013483067
-0.00352845623
-0.001828725501
-0.002697559658
-0.002108287345
-0.00183663319
-0.002121040352
-0.001056369644
-0.001846176354
-0.0004576768516
-0.001330759302
-0.0001035579492
-0.0006984469062
-0.0001401597495
-0.0002283126283
0.0005565075331
-0.0007639579413
0.001456324448
-0.001491511411
0.002100024112
-0.002324518055
0.002491473115
-0.003195199411
0.00265974586
-0.004046389658
0.002630573546
-0.004825671647
0.00241759826
-0.00548216849
0.002025437772
-0.005966154248
0.001458728362
-0.006231201049
0.0007328536165
-0.006238563209
-0.0001165579629
-0.005963466716
-0.001027307334
-0.005403384679
-0.001908387825
-0.004587214631
-0.002644895396
-0.003583213352
-0.003112286642
-0.002500859112
-0.003203392386
-0.001480133602
-0.00286690245
-0.000663868302
-0.002147022728
-0.0001582606243
-0.001204055463
-0.0002984201078
-0.0002745156009
0.0008310219838
-0.0009079555859
0.002089762512
-0.001757153996
0.002949220517
-0.002720075763
0.003454395126
-0.003721537148
0.003661206862
-0.004701591152
0.003610628123
-0.005607030187
0.003323038606
-0.006386249577
0.002804659562
-0.006987219652
0.002059699426
-0.007358064622
0.001103703457
-0.007450217546
-2.44004679e-05
-0.007224153854
-0.001253369811
-0.006659185041
-0.002473357741
-0.005766518634
-0.003537562293
-0.004604464785
-0.004274339338
-0.003289716372
-0.004518141036
-0.001994313768
-0.00416230808
-0.000916557416
-0.003224778124
-0.0002250094005
-0.001895608372
-0.0005234290745
-0.0003102361412
0.001141258017
-0.001020177685
0.002799702378
-0.001965688574
0.003894730092
-0.003033022381
0.004521729936
-0.004142278298
0.00477046385
-0.005233333536
0.004701683767
-0.006255018098
0.004344724431
-0.007157844246
0.003707489304
-0.007889866218
0.002791723676
-0.008395125282
0.001608966551
-0.008614682153
0.0001951583316
-0.00849156529
-0.001376489501
-0.007980445651
-0.002984481485
-0.007064634557
-0.004453374446
-0.005779267366
-0.005559706779
-0.004235881683
-0.006061529886
-0.002634581553
-0.005763613428
-0.001241219908
-0.00461814079
-0.0003132432308
-0.002823586859
-0.0008366721941
-0.0003335789071
0.001474836781
-0.001094571652
0.003560694754
-0.002105282319
0.004905439831
-0.00324433226
0.005660779043
-0.004429767099
0.005955900049
-0.005603733485
0.005875650356
-0.006719848075
0.00546083976
-0.007733878454
0.004721522439
-0.008597328548
0.003655175398
-0.009253379823
0.002265018913
-0.009635369429
0.0005771466869
-0.009669194321
-0.001342668294
-0.009281861887
-0.003371817156
-0.008419628182
-0.005315608308
-0.007078132453
-0.006901203299
-0.005342662324
-0.007797002619
-0.00342491813
-0.007681360016
-0.001662163787
-0.006380896845
-0.0004333056074
-0.004052441635
-0.001269978197
-0.0003432993654
0.001818135436
-0.001126712539
0.004344107995
-0.002166097147
0.00594482421
-0.003336024373
0.006830705239
-0.004554764066
0.007174640979
-0.005768880381
0.007089765847
-0.006939414791
0.006631373992
-0.008030855055
0.005812963758
-0.009002633264
0.004626955018
-0.009802580394
0.003064965883
-0.01036236645
0.001136929947
-0.01059619831
-0.001108837567
-0.01040562316
-0.003562390733
-0.009695001961
-0.00602622814
-0.008404365318
-0.008191840842
-0.006564032258
-0.009637337381
-0.00436382955
-0.009881562754
-0.002197407975
-0.008547319969
-0.0005960546277
-0.005653793836
-0.001866033172
-0.0003399051554
0.002158040168
-0.001116456011
0.005120658413
-0.002144391815
0.006972758841
-0.003296733942
0.007983045404
-0.004493794249
0.008371700526
-0.005688481311
0.008284449936
-0.006851780274
0.007794672334
-0.00796049649
0.006921680349
-0.00898719186
0.005653652677
-0.009891592334
0.003969369087
-0.01061301678
0.00185835408
-0.01106434823
-0.0006575057565
-0.01113119071
-0.003495546662
-0.01067903347
-0.006478387309
-0.009582239354
-0.009288639263
-0.007785663988
-0.01143391628
-0.005407084887
-0.01226014396
-0.002850846179
-0.0111035594
-0.0008122541199
-0.007692390328
-0.002678287092
-0.0003271404997
0.002485180415
-0.001071467192
0.005864984075
-0.002047882021
0.00794917121
-0.003128880568
0.009064040051
-0.004238601597
0.009481418754
-0.005338507098
0.009384352
-0.006412117144
0.008868283407
-0.007451988421
0.007961553133
-0.008448872331
0.00665053782
-0.009381958414
0.004902457566
-0.01020919765
0.002685595498
-0.01085572607
-1.097602173e-05
-0.01120833735
-0.003142936515
-0.01110691448
-0.006579816489
-0.01036316424
-0.01003239485
-0.008814744049
-0.01298233919
-0.006449337855
-0.01462555321
-0.003599879402
-0.01395301555
-0.001090884496
-0.01020138417
-0.003769169879
-0.0003139057269
0.002799085248
-0.001011366961
0.006562442482
-0.001901465445
0.008839266591
-0.002855752772
0.01001832246
-0.003805146329
0.0104308087
-0.004723256964
0.01030246027
-0.00560932973
0.009754358847
-0.006474723726
0.008826950563
-0.007332235594
0.00750805121
-0.008186425098
0.005756646327
-0.009022903429
0.003522073683
-0.009796461032
0.000762582085
-0.01041107693
-0.002528322007
-0.01070840647
-0.006282488547
-0.01045785225
-0.01028294697
-0.009389297883
-0.01405088927
-0.007312308043
-0.01670254335
-0.004378994902
-0.01688632792
-0.001435161262
-0.01314521488
-0.005204332681
-0.0003169819463
0.003116066351
-0.0009724537206
0.007217910407
-0.001752171709
0.009618982431
-0.002526033521
0.01079218102
-0.003238209872
0.01114298229
-0.003881186232
0.01094543498
-0.004474558075
0.0103477324
-0.005051177815
0.009403571754
-0.005647732099
0.00810460673
-0.006296695022
0.006405610433
-0.007017054399
0.004242435486
-0.007801311525
0.001546840281
-0.008594827718
-0.001734808317
-0.009269224432
-0.005608091728
-0.009591013973
-0.009961157596
-0.009212580028
-0.01442932369
-0.007749586297
-0.01816554022
-0.00506384173
-0.0195720743
-0.001834501727
-0.01637455781
-0.007038837271
-0.0003654916044
0.003481557472
-0.001013024958
0.007865440134
-0.001671345186
0.01027730045
-0.002211675538
0.01133250923
-0.002605567353
0.01153687377
-0.002876368918
0.01121623587
-0.003070825255
0.01054218927
-0.003245699841
0.009578446406
-0.003461152908
0.008320058426
-0.003775964102
0.006720421436
-0.004241635429
0.004708109279
-0.004892439083
0.002197646465
-0.005727189579
-0.0009000573913
-0.006677368177
-0.004657908573
-0.007556575115
-0.009081951759
-0.008001977034
-0.01398392544
-0.007470293346
-0.018697226
-0.005462162894
-0.02158020195
-0.002250367182
-0.01958635258
-0.009289202568
-0.000507664867
0.003989221937
-0.001217014752
0.008574787726
-0.001747262487
0.01080754561
-0.001988309892
0.01157355271
-0.001968045239
0.01151660986
-0.0017599154
0.01100810723
-0.001446751437
0.01022902526
-0.001111190366
0.009242885346
-0.0008344478084
0.008043319052
-0.0006966126406
0.006582591763
-0.000775726801
0.004787227807
-0.001143504473
0.002565424435
-0.001853857535
-0.0001897068139
-0.002915956776
-0.003595808061
-0.004237445157
-0.007760463822
-0.005523879935
-0.01269749033
-0.006166129214
-0.01805497509
-0.005310258482
-0.02243607511
-0.002593539639
-0.02230307199
-0.01188274917
-0.0008130478959
0.004802269425
-0.001680633589
0.009442372836
-0.002039710439
0.01116662295
-0.001859704473
0.01139354214
-0.001281855889
0.01093875886
-0.0004568090103
0.01018306189
0.0004877004214
0.009284517942
0.00144337265
0.008287213022
0.002312800721
0.007173890799
0.003002094896
0.005893298444
0.003415815094
0.004373507249
0.003454940598
0.00252629959
0.003019642675
0.0002455966432
0.002024064288
-0.002600226581
0.0004410061163
-0.006177404101
-0.001583910893
-0.01067257639
-0.003517460409
-0.016121432
-0.004264131858
-0.02168941142
-0.00269048922
-0.02387670879
-0.01457323919
-0.001349083381
0.00615135268
-0.002419315382
0.01051260389
-0.002385889715
0.01113320023
-0.001495913815
0.01050356721
-0.0001055079389
0.009548351714
0.001534145439
0.008543408926
0.003253783542
0.007564880102
0.004929935548
0.006611061044
0.006461271654
0.005642556211
0.007752527058
0.00460204596
0.008703465764
0.003422569611
0.009201640651
0.002028126392
0.009117840051
0.0003294019619
0.008308405565
-0.001790799157
0.006634254996
-0.004503250294
0.004046370753
-0.008084682056
0.0008406876233
-0.01291574148
-0.001886186482
-0.01896253639
-0.002256584861
-0.02350631518
-0.01682982468
-0.002135325365
0.008286678706
-0.00292161561
0.01129889139
-0.001686643073
0.009898231558
0.0005353084433
0.00828161992
0.003115904422
0.006967757751
0.005764507216
0.005894805022
0.008327935549
0.005001449162
0.01070942487
0.00422956956
0.01283450047
0.003517481724
0.01462986134
0.002806687763
0.01600975253
0.002042676704
0.01686729847
0.001170580009
0.01706558192
0.0001311258824
0.01643293996
-0.001158162727
0.01475403768
-0.002824349356
0.0117945203
-0.005125165597
0.007463400614
-0.00858462691
0.002447721699
-0.01394685475
-0.0008837267757
-0.02017486634
-0.01771355235
-0.00248771108
0.01077439147
-1.244757685e-05
0.008823625864
0.004177452064
0.005708330166
0.008327125103
0.004131948663
0.01212145597
0.003173428786
0.01552926482
0.002486996373
0.01855124541
0.00197946807
0.02119278452
0.001588029532
0.02345027906
0.001259987734
0.02530081721
0.0009561523465
0.02669730022
0.000646196948
0.02756231971
0.0003055634966
0.02778312614
-8.967766677e-05
0.02720019603
-0.0005752307283
0.02557646393
-0.001200615721
0.02255045966
-0.002099160271
0.01762030989
-0.003654477461
0.01040210316
-0.006728643615
0.002475462384
-0.01224823041
-0.01523808614
0.01077439329
0.01959802153
0.02530635133
0.0294382987
0.03261172722
0.03509872314
0.0370781898
0.03866621942
0.03992620876
0.04088236011
0.0415285554
0.04183412093
0.04174444163
0.04116921258
0.03996860008
0.0378694415
0.03421496379
0.02748631803
0.01523808625
)
;

boundaryField
{
    movingWall
    {
        type            calculated;
        value           uniform 0;
    }
    fixedWalls
    {
        type            calculated;
        value           uniform 0;
    }
    frontAndBack
    {
        type            empty;
    }
}


// ************************************************************************* //
