/*--------------------------------*- C++ -*----------------------------------*\
  =========                 |
  \\      /  F ield         | OpenFOAM: The Open Source CFD Toolbox
   \\    /   O peration     | Website:  https://openfoam.org
    \\  /    A nd           | Version:  13
     \\/     M anipulation  |
\*---------------------------------------------------------------------------*/
FoamFile
{
    format      ascii;
    class       volVectorField;
    location    "40";
    object      U;
}
// * * * * * * * * * * * * * * * * * * * * * * * * * * * * * * * * * * * * * //

dimensions      [0 1 -1 0 0 0 0];

internalField   nonuniform List<vector> 
400
(
(1.10033004e-05 -3.78336393e-05 0)
(-0.000666097827 0.0004130421818 -1.551094615e-23)
(-0.002185374519 0.0009203928511 0)
(-0.004047832938 0.001312780625 0)
(-0.005971869899 0.001535067228 6.845325017e-25)
(-0.007762784814 0.001569850388 4.150487705e-24)
(-0.00928454444 0.001423564932 -7.37212419e-24)
(-0.01043593801 0.001119721713 7.531873135e-24)
(-0.01113681067 0.0006960787768 -2.095365192e-25)
(-0.01132711031 0.0002030740503 -3.994694583e-24)
(-0.01097177461 -0.0003002348481 5.803628113e-24)
(-0.01007233133 -0.0007475151394 -5.929605313e-23)
(-0.008679882634 -0.001075560232 -6.552764119e-23)
(-0.006902853299 -0.001233042392 -7.784458559e-23)
(-0.004910736416 -0.001192637945 4.573663939e-24)
(-0.002927229683 -0.0009619211016 -4.137988471e-24)
(-0.001205297635 -0.0005912128845 -1.998780292e-22)
(-1.906782774e-05 -0.0001698841226 0)
(0.0005181544593 0.0001720847108 1.509575229e-25)
(0.0002227516003 0.0003059787561 -2.55231812e-24)
(-0.000263364249 0.000828967683 1.383137993e-25)
(-0.002703306852 0.003383841323 1.56088856e-23)
(-0.006907276664 0.005604499503 1.554989308e-25)
(-0.01195231774 0.007008204822 -8.495359943e-25)
(-0.01713504302 0.007553775098 1.162137018e-24)
(-0.02197535554 0.007294202126 1.306835432e-23)
(-0.02611076358 0.006321898286 1.388603925e-24)
(-0.02926564869 0.004754195374 -7.283561329e-24)
(-0.03122672807 0.002737150361 1.015328939e-23)
(-0.03184200538 0.0004524022477 4.510050168e-24)
(-0.03102761025 -0.001884147577 -6.318902738e-24)
(-0.02879316447 -0.004023029673 2.961619598e-24)
(-0.02527138456 -0.005708352073 3.895592133e-23)
(-0.02073195105 -0.006707406394 -1.95479396e-24)
(-0.01558962796 -0.006854138449 3.754539179e-24)
(-0.01038513414 -0.006097464957 -9.741196188e-23)
(-0.005730271419 -0.004546188912 9.6378268e-23)
(-0.002233366011 -0.002507421788 -3.961412714e-25)
(-0.0001817736642 -0.0005023744518 4.061320266e-25)
(8.343648042e-05 0.0006099248076 0)
(-0.0004188235458 0.002935078758 -2.910533522e-25)
(-0.004647876026 0.008804015651 1.702189841e-23)
(-0.01137196212 0.0132404245 -8.281755852e-24)
(-0.01932729074 0.01579203936 -2.075056021e-25)
(-0.02747411436 0.01652999659 2.03852589e-25)
(-0.0351177849 0.01564441357 6.818930803e-27)
(-0.04171344618 0.01335997593 -1.22111606e-24)
(-0.04683571697 0.009919774014 -4.55148645e-25)
(-0.05014988912 0.005602436757 -1.06315271e-23)
(-0.05141231753 0.0007444220788 0)
(-0.05047792956 -0.004241781141 0)
(-0.04733705919 -0.008887188746 2.671035422e-23)
(-0.04215927657 -0.01268177043 2.813036314e-23)
(-0.03531437373 -0.01513605121 -1.646179702e-24)
(-0.02738996356 -0.01586189415 4.845930298e-23)
(-0.01917006 -0.01467334064 9.419492504e-23)
(-0.01156090767 -0.01169360387 3.975928693e-23)
(-0.005465411431 -0.007450743901 4.142613205e-25)
(-0.001451098151 -0.002936044509 1.073411829e-25)
(-9.072604822e-05 0.00022587565 0)
(-0.0005024624472 0.006045348395 -4.249121612e-23)
(-0.006402739251 0.01637075407 -1.692411735e-23)
(-0.0155350255 0.02355933622 8.208586097e-24)
(-0.02627912185 0.02744162709 0)
(-0.03728746706 0.02832102098 0)
(-0.04769037175 0.02658772227 0)
(-0.05679662583 0.02263119958 -4.469050085e-26)
(-0.06405383642 0.0168360907 -2.136334352e-24)
(-0.06901081265 0.009622184064 0)
(-0.07130827708 0.001491051758 1.635521846e-24)
(-0.07070853325 -0.006936502047 2.802843789e-25)
(-0.06713039169 -0.01493018761 -2.810691687e-25)
(-0.06069905335 -0.02166728174 0)
(-0.05180750329 -0.02631605778 4.13334636e-23)
(-0.04114991601 -0.02816070823 -4.681641411e-23)
(-0.02971970254 -0.02677372114 -2.762019774e-23)
(-0.01873716726 -0.02221530396 -3.961079003e-23)
(-0.009488028375 -0.01521922124 7.795899194e-25)
(-0.002976879284 -0.007298194783 9.790105099e-23)
(-0.0002318789149 -0.0008661692515 0)
(-0.0005316124179 0.01009501517 4.269783368e-23)
(-0.007983591167 0.025952192 4.785071277e-25)
(-0.0193968733 0.03642882531 -4.675781814e-25)
(-0.03282382417 0.04185520616 0)
(-0.04664688996 0.04289485271 7.782537943e-25)
(-0.05985229546 0.04020074038 -7.674630224e-25)
(-0.0716329106 0.03434741531 3.672156162e-23)
(-0.08132750787 0.02585663863 1.848094969e-23)
(-0.088366006 0.01527298191 6.238559505e-24)
(-0.09225469121 0.003246147166 -1.637427251e-24)
(-0.09260379431 -0.009407830916 0)
(-0.08917555191 -0.02167477805 4.37076796e-25)
(-0.08195978934 -0.03236744868 1.00906045e-23)
(-0.0712688514 -0.04021250011 -4.349383626e-23)
(-0.05782018593 -0.04402046236 1.932945775e-24)
(-0.04278582854 -0.04294829242 4.217419607e-23)
(-0.02775450307 -0.03683346788 -3.842022156e-25)
(-0.0145506232 -0.02652720855 0)
(-0.0048594624 -0.0140845445 5.436561553e-23)
(-0.0003641480965 -0.00284695415 -2.565050012e-22)
(-0.0005272213205 0.01499927799 9.841306335e-23)
(-0.009377925103 0.03739022072 -4.907536996e-25)
(-0.02288182567 0.05170222562 0)
(-0.03883043284 0.05894182681 0)
(-0.0553865658 0.06025574331 -8.732026481e-23)
(-0.07142876503 0.05661900927 -8.49899814e-23)
(-0.08606653916 0.048801687 -4.067399333e-23)
(-0.09855085636 0.03743980426 -1.504305235e-23)
(-0.1081945265 0.02315983872 -5.368636623e-24)
(-0.1143444678 0.006709679086 -8.174838285e-24)
(-0.1164046159 -0.01093292045 6.600962552e-24)
(-0.1138937357 -0.02848944805 8.826407202e-24)
(-0.1065486941 -0.04437045947 -1.89231772e-23)
(-0.09446803697 -0.05675333463 4.606525076e-24)
(-0.07826856599 -0.06378298411 0)
(-0.05922895213 -0.06393495204 -1.572956284e-23)
(-0.03933981775 -0.05653816079 -2.426442692e-26)
(-0.02114188772 -0.04235808948 0)
(-0.007318703058 -0.02398229322 -1.520622674e-22)
(-0.0005216167317 -0.005925544921 6.056216531e-22)
(-0.0004990828803 0.02064574532 -9.774260989e-23)
(-0.0105295107 0.05045438045 2.831961841e-22)
(-0.02582957386 0.06912511367 1.526847884e-22)
(-0.04402138093 0.07849257415 3.619244914e-24)
(-0.06310738879 0.08029475902 -7.319324473e-23)
(-0.08190404766 0.07588042513 9.043447859e-23)
(-0.09947763341 0.06621690443 -3.590188295e-24)
(-0.1150227337 0.0520169493 -1.729154316e-24)
(-0.1277519132 0.03392358439 2.524136361e-24)
(-0.1368472546 0.01270233224 7.38248178e-24)
(-0.1414710463 -0.01058782188 -6.500718825e-24)
(-0.1408248124 -0.03446024116 -9.787801602e-24)
(-0.1342745917 -0.05692771357 -3.26173558e-23)
(-0.1215450196 -0.07553315822 -3.661311638e-23)
(-0.1029672621 -0.0875426018 5.645606784e-25)
(-0.07976369617 -0.09039209322 0)
(-0.05426682283 -0.08244513447 0)
(-0.02987160851 -0.06397736626 -2.906036542e-24)
(-0.01066285158 -0.03798794587 2.970485148e-24)
(-0.0007350940069 -0.01050089428 1.027876584e-22)
(-0.0004479166456 0.02687250881 0)
(-0.01134923241 0.06480757229 2.001985454e-22)
(-0.0280159969 0.08829616884 8.962084665e-23)
(-0.04799857243 0.1001234899 0)
(-0.06920601765 0.1027076499 1.569873256e-22)
(-0.09044372882 0.09781578103 0)
(-0.1107831647 0.08661102631 -1.428384245e-22)
(-0.1294093729 0.06983950116 6.515537893e-24)
(-0.14547716 0.04808232113 0)
(-0.1580351774 0.02201755629 0)
(-0.1660133413 -0.00733443798 -1.374403568e-24)
(-0.1682671512 -0.03838839439 -9.316687192e-25)
(-0.1637064653 -0.0688397546 1.491969389e-22)
(-0.1515208723 -0.09558275285 -4.704632752e-23)
(-0.1315134522 -0.1148298609 -2.560938263e-24)
(-0.1045596048 -0.1225703365 1.534701392e-24)
(-0.07309349674 -0.1155517927 -1.558910203e-24)
(-0.04135021369 -0.0928311529 0)
(-0.01525230251 -0.05740767476 3.203798835e-24)
(-0.001044309228 -0.01714714402 -1.012910508e-21)
(-0.0003744660386 0.03346304208 0)
(-0.01175005966 0.07998918213 -1.128284864e-22)
(-0.02920707878 0.108639089 -6.191134464e-22)
(-0.05031744971 0.1232233937 -3.755299054e-22)
(-0.07296317327 0.126909698 0)
(-0.09598960003 0.1219255587 4.119446838e-22)
(-0.118527346 0.1096348597 1.260921383e-22)
(-0.1398146395 0.09078245534 -5.581824818e-24)
(-0.1590221528 0.06581392992 5.554197784e-24)
(-0.1751460982 0.03520881103 0)
(-0.1869559963 -0.000196745445 2.912126824e-23)
(-0.1930172624 -0.03889754021 4.695825889e-24)
(-0.1917809888 -0.07843888091 -1.076803772e-22)
(-0.181787441 -0.1151865325 8.004159145e-23)
(-0.1620570411 -0.1442599408 -2.419736275e-22)
(-0.1327061978 -0.1598548575 0)
(-0.09577887966 -0.1563112839 0)
(-0.05601632929 -0.1302981048 0)
(-0.02147859078 -0.08381134891 0)
(-0.001500384529 -0.02665516221 5.572099846e-22)
(-0.0002873896415 0.0401607754 0)
(-0.01169359533 0.09543610966 -3.493008398e-22)
(-0.02924438188 0.129407356 8.932785125e-22)
(-0.0506094721 0.1469299101 3.617171591e-22)
(-0.07370082571 0.1519748612 0)
(-0.09745151028 0.1472757907 -3.862545242e-22)
(-0.1211069823 0.1344191904 -3.174424427e-23)
(-0.1440324771 0.1141393285 3.333100376e-22)
(-0.1655143221 0.08670006428 1.76947273e-22)
(-0.1846248508 0.05229123476 -4.060148508e-23)
(-0.2001325799 0.01141716342 1.656821777e-23)
(-0.210462243 -0.03471423843 -8.265238171e-24)
(-0.2137208514 -0.0837656317 3.37185511e-22)
(-0.2078215482 -0.1318756294 0)
(-0.1908238517 -0.1732756077 2.420905297e-22)
(-0.1616335718 -0.2002593333 5.774746571e-24)
(-0.1211662672 -0.2040121651 -5.860865124e-24)
(-0.07384989662 -0.177211991 1.548438372e-22)
(-0.02971786752 -0.1188642297 -5.435431491e-24)
(-0.002179544971 -0.04005398651 0)
(-0.0002117200345 0.04671639872 0)
(-0.01125001077 0.1105498079 0)
(-0.02815624394 0.1497354934 -5.022749577e-22)
(-0.04874479241 0.1701517529 -1.880995516e-23)
(-0.07100086597 0.1766257078 2.038376219e-23)
(-0.09399451478 0.1724526455 -2.014308746e-23)
(-0.1171434299 0.1594870944 -2.316880688e-23)
(-0.1400179501 0.1384805052 -3.029819354e-22)
(-0.1621328886 0.10951607 6.698611575e-23)
(-0.1827959031 0.0724518696 4.513173831e-23)
(-0.2009835551 0.02734928988 -4.577717119e-23)
(-0.2152270259 -0.02508697472 0)
(-0.2235562208 -0.0829835094 -7.839665523e-23)
(-0.2234632192 -0.1427257279 0)
(-0.2120679425 -0.1981820821 -3.739558684e-22)
(-0.1867434539 -0.2400773633 5.244946378e-22)
(-0.1464438293 -0.2560773351 0)
(-0.09394567628 -0.2331209452 -1.493984754e-22)
(-0.04022000929 -0.1639613624 1.937541415e-22)
(-0.003201100131 -0.05861063024 -3.411521015e-22)
(-0.0002015411739 0.05297584935 0)
(-0.01067261931 0.1248172346 9.182862122e-22)
(-0.02628446718 0.1687424518 -2.440682997e-23)
(-0.0450110784 0.1916455068 9.193332036e-22)
(-0.06494597552 0.1992920984 -2.512084418e-23)
(-0.08536628642 0.1956104259 2.838842213e-23)
(-0.1059305664 0.1827886799 -2.812928291e-23)
(-0.1264924205 0.1616583481 -1.660916726e-23)
(-0.1468996864 0.1321762288 -5.260225339e-22)
(-0.1668458172 0.0938964665 -8.906622341e-24)
(-0.1857303039 0.04640576442 9.660191329e-24)
(-0.2024781701 -0.01023784487 3.313076467e-22)
(-0.2154154628 -0.07499819975 -5.820737657e-22)
(-0.222020973 -0.1450311794 0)
(-0.2188032114 -0.2146760567 8.887317662e-22)
(-0.201625753 -0.2740016367 -4.940879481e-22)
(-0.1668639193 -0.3075811899 -1.572220874e-23)
(-0.114022009 -0.2953811858 0)
(-0.0528848198 -0.2195802538 -1.890175265e-22)
(-0.004749188092 -0.08377277795 3.360578944e-22)
(-0.0003641986418 0.0590231758 1.55100928e-23)
(-0.01049574024 0.137988146 -8.764190121e-22)
(-0.02441389674 0.1856804043 -1.157058419e-21)
(-0.04026724572 0.2101384685 -8.628981362e-22)
(-0.05630729772 0.2182348845 0)
(-0.07214856766 0.2146190213 3.513803932e-23)
(-0.08779221898 0.2018791914 -7.294863551e-23)
(-0.1034562824 0.1810005586 5.867881999e-23)
(-0.1193983909 0.1518997235 3.021365024e-22)
(-0.1357931584 0.1139150577 -1.12819521e-23)
(-0.1526082358 0.06621425137 0)
(-0.1694521413 0.008177206176 -3.603928406e-22)
(-0.1852760635 -0.06015987351 7.51566594e-22)
(-0.1980448553 -0.1372746971 8.83170138e-22)
(-0.2043546296 -0.2189261842 -5.296624645e-22)
(-0.1990977637 -0.2959712863 5.162686759e-22)
(-0.1760605345 -0.3514072537 1.078230667e-23)
(-0.1300890637 -0.3584150732 -1.09554567e-23)
(-0.06688803305 -0.2843276469 -8.215412002e-23)
(-0.007083319922 -0.1169964398 0)
(-0.000909577638 0.0654004141 -1.911485762e-23)
(-0.01167591814 0.1502816372 -1.326964919e-21)
(-0.02388882258 0.2000659506 1.094236848e-21)
(-0.03601340649 0.2244216907 6.734926663e-22)
(-0.04657309003 0.2316588185 6.014629257e-22)
(-0.05577038813 0.2272393644 6.643954807e-22)
(-0.06411246121 0.2141774838 -4.458676268e-23)
(-0.07227562075 0.193649436 -3.461336243e-22)
(-0.08096973423 0.1656028313 2.152161815e-22)
(-0.09087192817 0.1292707365 0)
(-0.1025547503 0.08353082673 0)
(-0.1163622206 0.02720010994 2.655396079e-22)
(-0.1321589607 -0.04062005693 8.194324605e-23)
(-0.1489252364 -0.1200128272 -2.821622484e-22)
(-0.1641284322 -0.2089300651 -5.411269801e-23)
(-0.1727877654 -0.3006992464 1.301951525e-22)
(-0.1670311329 -0.3793329056 -3.400500845e-22)
(-0.1365292452 -0.4136451922 -1.593888426e-23)
(-0.08018250177 -0.3538326162 8.204184551e-23)
(-0.01050762296 -0.1594130548 -6.032170204e-22)
(-0.002260498567 0.07348883454 0)
(-0.01580355783 0.1626521742 2.145873566e-21)
(-0.02665042816 0.2117904694 0)
(-0.03422339928 0.2333947222 -1.351807229e-21)
(-0.0375939889 0.2377766776 6.184050682e-23)
(-0.03799685713 0.2312553477 -6.193092569e-22)
(-0.03668266433 0.2171898974 -4.756282806e-22)
(-0.03489036937 0.1968934471 8.301252534e-22)
(-0.03378838563 0.1703342379 -1.885697477e-22)
(-0.03449877121 0.1367221086 0)
(-0.03811573401 0.09479673839 0)
(-0.04564993101 0.0430428687 2.410616591e-23)
(-0.05790804944 -0.02013780905 -6.007196601e-22)
(-0.07514599148 -0.09620649878 -4.309565559e-22)
(-0.09645175535 -0.1855556139 4.637860728e-22)
(-0.1183462663 -0.2853567738 -6.488731528e-22)
(-0.1332715417 -0.38383865 9.119944862e-23)
(-0.1265351009 -0.4504358677 2.93737632e-23)
(-0.08899154162 -0.4198536339 5.660449322e-22)
(-0.01526917938 -0.2111719711 6.020802927e-22)
(-0.005180899844 0.08598045945 0)
(-0.02525550859 0.1766291173 1.465579661e-22)
(-0.03483408241 0.2205961522 -4.917141892e-23)
(-0.03640014244 0.235485931 7.642926241e-22)
(-0.03018483525 0.2343406711 -7.00537428e-22)
(-0.01916579986 0.2241603844 4.746478743e-23)
(-0.005615156264 0.2083525813 -1.018609102e-22)
(0.008569601354 0.1881241068 -3.38988754e-22)
(0.02179885493 0.1633911264 2.062822077e-22)
(0.03262780769 0.133324274 0)
(0.03958457858 0.09664086365 0)
(0.0411701259 0.0517405669 -2.902666769e-22)
(0.03578483201 -0.003255395111 0)
(0.02198184119 -0.07058360568 -5.512185179e-22)
(-0.001264850975 -0.1525735482 -1.492376581e-23)
(-0.03310470291 -0.2505949824 2.559737953e-23)
(-0.06909236147 -0.3599341493 2.203137859e-22)
(-0.09227827222 -0.4575424504 4.788120254e-24)
(-0.08718090013 -0.4698129389 -5.789418114e-22)
(-0.02103127159 -0.2698972279 0)
(-0.01111631585 0.1085974974 0)
(-0.04248902 0.1947151667 -8.848475465e-22)
(-0.04795529161 0.2258195491 -5.411037331e-22)
(-0.03919536305 0.2282135529 4.543814234e-22)
(-0.0187783078 0.2182328105 -1.709982954e-24)
(0.007664308138 0.2028220326 -4.561046932e-23)
(0.03667992766 0.1847619745 5.696679082e-22)
(0.06582997926 0.1647118201 -2.766889307e-23)
(0.09327130226 0.1423128174 -2.069780977e-22)
(0.1173891541 0.1166274945 3.142212426e-23)
(0.1365461623 0.08641144036 -3.425916107e-23)
(0.1489669206 0.05017669228 -3.690593029e-23)
(0.1525275724 0.00615916911 3.205632544e-22)
(0.1449366981 -0.04796126811 6.119604095e-22)
(0.1235159747 -0.115305289 -5.101169385e-22)
(0.08633533069 -0.2004195633 -1.616056095e-22)
(0.03199088968 -0.3067806578 1.531310216e-22)
(-0.0236212339 -0.4239837132 7.293656132e-23)
(-0.06492413149 -0.4871612774 1.913292151e-21)
(-0.02509971717 -0.3291544732 2.954992071e-21)
(-0.02004680491 0.1460727401 -4.390206651e-23)
(-0.06416406324 0.2112955854 4.417379396e-23)
(-0.05070230719 0.2177300473 1.00018817e-21)
(-0.01934097601 0.2014679973 -8.270536506e-24)
(0.02414464576 0.1809076166 0)
(0.07154121615 0.1606933335 4.363719454e-23)
(0.1190703355 0.1416495483 -2.273850616e-22)
(0.1644767278 0.1233181815 -9.027952046e-23)
(0.2062251103 0.1048117293 3.680732723e-23)
(0.2429642969 0.08507140132 -1.701654494e-23)
(0.2732207528 0.06296147768 3.429969414e-23)
(0.2952536062 0.03726293945 -6.592679119e-23)
(0.3066971018 0.006535069574 -9.303903743e-23)
(0.3049738277 -0.03087769915 1.51704347e-22)
(0.2863936219 -0.0778629086 0)
(0.247056806 -0.1399300361 1.505608839e-22)
(0.1810922215 -0.2266299748 2.560014238e-22)
(0.09604450088 -0.3443894942 0)
(-0.006697616706 -0.4552210213 -3.675635714e-21)
(-0.01922408215 -0.3777537583 -2.892621524e-21)
(-0.02591951323 0.2276828795 -9.51420365e-22)
(-0.03998324619 0.2238216527 -1.388976132e-22)
(0.03656136878 0.1810585361 -2.335580795e-22)
(0.1090503039 0.1451059092 -1.193741436e-22)
(0.181719118 0.1172445495 -4.295824198e-23)
(0.2490090711 0.09627907631 9.783175923e-23)
(0.3100336675 0.08002510418 -1.408591402e-22)
(0.36462093 0.0665681534 1.29717464e-22)
(0.4126252459 0.05449178902 -8.620116684e-23)
(0.4536250265 0.04270894946 1.132192324e-25)
(0.4867878691 0.0303229845 1.527741251e-23)
(0.5107451336 0.01652901898 7.997202555e-23)
(0.5236597432 0.0005365148095 -1.811123274e-22)
(0.5231797995 -0.01863373208 -1.617145616e-22)
(0.5052323406 -0.04286478923 -4.262949374e-23)
(0.4658715071 -0.07633231163 0)
(0.395269649 -0.1286089383 -1.846478986e-22)
(0.2916071041 -0.2208468098 8.148765015e-22)
(0.1197455101 -0.3525016902 1.631601843e-21)
(0.02670547249 -0.3775497978 2.172656041e-21)
(0.2142894472 0.1347447205 9.864988526e-22)
(0.2776311192 0.09870503552 0)
(0.4316592296 0.05810414846 -2.59432019e-22)
(0.5304749349 0.03846264978 -1.741665984e-22)
(0.601696575 0.02623419143 0)
(0.6571198953 0.01831923501 -6.009088755e-23)
(0.7015213593 0.01313600867 6.377997851e-23)
(0.7376042487 0.009542126451 -1.80015545e-23)
(0.7669368402 0.006804463624 2.885972578e-23)
(0.7902106671 0.004464743854 2.315032043e-23)
(0.8074554998 0.002221319785 0)
(0.8182621345 -0.000150075038 -2.873031881e-23)
(0.8216499709 -0.002723848327 0)
(0.8162394193 -0.005712668656 2.738148613e-23)
(0.7991333146 -0.009611382819 1.421689483e-23)
(0.7679986345 -0.01500255106 -5.799406243e-23)
(0.7106555755 -0.02502519955 -2.535661863e-22)
(0.623518398 -0.0420428541 -6.918102999e-22)
(0.423009102 -0.09182968083 0)
(0.2705674689 -0.1524021841 -2.119483903e-21)
)
;

boundaryField
{
    movingWall
    {
        type            fixedValue;
        value           uniform (1 0 0);
    }
    fixedWalls
    {
        type            fixedValue;
        value           uniform (0 0 0);
    }
    frontAndBack
    {
        type            empty;
    }
}


// ************************************************************************* //
