/*--------------------------------*- C++ -*----------------------------------*\
  =========                 |
  \\      /  F ield         | OpenFOAM: The Open Source CFD Toolbox
   \\    /   O peration     | Website:  https://openfoam.org
    \\  /    A nd           | Version:  13
     \\/     M anipulation  |
\*---------------------------------------------------------------------------*/
FoamFile
{
    format      ascii;
    class       volVectorField;
    location    "40";
    object      U;
}
// * * * * * * * * * * * * * * * * * * * * * * * * * * * * * * * * * * * * * //

dimensions      [0 1 -1 0 0 0 0];

internalField   nonuniform List<vector> 
400
(
(0.0001824312319 -0.0001863155405 0)
(-0.000138236391 3.031872216e-05 0)
(-0.001533277324 0.000268433656 0)
(-0.003784020302 0.0004194219037 0)
(-0.006542672158 0.0004992233053 0)
(-0.009507998035 0.0005296248056 0)
(-0.01243006421 0.0005203946791 0)
(-0.01507535749 0.0004704723477 0)
(-0.01720340979 0.000373083558 0)
(-0.01856753588 0.0002228265493 0)
(-0.01894216822 2.29485087e-05 0)
(-0.01817224707 -0.0002091375897 0)
(-0.01623262931 -0.0004394688076 0)
(-0.01327895739 -0.0006214756015 0)
(-0.009667785418 -0.0007065273898 0)
(-0.005925745461 -0.0006596867303 0)
(-0.002659156335 -0.0004747814083 0)
(-0.0004096770208 -0.0001823585313 0)
(0.0005384665087 0.0001365882572 0)
(0.0003091859991 0.0003022177754 0)
(-4.743132576e-05 0.0001371732494 0)
(-0.002077143813 0.001930914875 0)
(-0.006426513833 0.003756438015 0)
(-0.01256994531 0.005018725445 0)
(-0.01974972257 0.005683141313 0)
(-0.0272952073 0.005826087163 0)
(-0.03460165077 0.005498153439 0)
(-0.04108728985 0.004705752228 0)
(-0.04617265871 0.003439118224 0)
(-0.04929977692 0.001717655775 0)
(-0.0499960734 -0.000365908313 0)
(-0.04797168092 -0.002617192884 0)
(-0.04322764143 -0.004739234921 0)
(-0.03614270944 -0.006369119336 0)
(-0.02750144181 -0.007154224307 0)
(-0.01842978537 -0.006857436033 0)
(-0.01021704275 -0.00546361442 0)
(-0.004032540759 -0.003254642691 0)
(-0.0005778073308 -0.0008621707195 0)
(0.0002210467294 0.0005876555166 0)
(-0.0003531168092 0.001715596579 0)
(-0.004480572442 0.006458641061 0)
(-0.01185518448 0.01066145813 0)
(-0.02157313995 0.01350344074 0)
(-0.03253812921 0.01493563933 0)
(-0.04383859544 0.01508556163 0)
(-0.05463651821 0.014042493 0)
(-0.06411596861 0.01182880783 0)
(-0.07147523192 0.008457900226 0)
(-0.07596279626 0.004024482854 0)
(-0.07695955189 -0.001211014419 0)
(-0.07409417645 -0.006772404872 0)
(-0.06736847852 -0.01197398732 0)
(-0.05726217389 -0.01599940129 0)
(-0.04477900216 -0.01805960592 0)
(-0.03139062425 -0.01761454503 0)
(-0.01883776801 -0.01460869891 0)
(-0.008786526055 -0.009644395606 0)
(-0.002418417297 -0.00405520905 0)
(3.469126528e-05 2.229112702e-05 0)
(-0.0006301312913 0.004589384909 0)
(-0.006801527475 0.01365785074 0)
(-0.01707843372 0.02089691595 0)
(-0.03011054731 0.02559982495 0)
(-0.0444608027 0.02783141685 0)
(-0.0590369142 0.02781051271 0)
(-0.07285487634 0.02567646016 0)
(-0.08495764931 0.02147565267 0)
(-0.09440662953 0.01526012746 0)
(-0.1003200052 0.007225858652 0)
(-0.1019558668 -0.002162737489 0)
(-0.09882948952 -0.01209993893 0)
(-0.09084935953 -0.02144517231 0)
(-0.07845078454 -0.02883506421 0)
(-0.06269250785 -0.03291819239 0)
(-0.04526048945 -0.032707179 0)
(-0.02830476156 -0.02798535054 0)
(-0.01407287456 -0.01963416981 0)
(-0.004429619706 -0.00974429054 0)
(-0.0001256168639 -0.001518070855 0)
(-0.0008688025292 0.008642405782 0)
(-0.008878027292 0.02330135589 0)
(-0.02179016837 0.03413283848 0)
(-0.0378161857 0.04086927099 0)
(-0.05519962381 0.0438626645 0)
(-0.07271256268 0.04349914611 0)
(-0.08929144421 0.03999514456 0)
(-0.1039109242 0.03342717623 0)
(-0.115557351 0.02388247835 0)
(-0.1232518094 0.01164727275 0)
(-0.1261179648 -0.002627251967 0)
(-0.1234899911 -0.01782035325 0)
(-0.1150592934 -0.03232782843 0)
(-0.1010532111 -0.04417698052 0)
(-0.08241815075 -0.05131176053 0)
(-0.06094042547 -0.05207610278 0)
(-0.03918566916 -0.04584442602 0)
(-0.02015163206 -0.03360643503 0)
(-0.006677589237 -0.01821006985 0)
(-0.000271922654 -0.004091222578 0)
(-0.001065508295 0.01371440969 0)
(-0.01062933775 0.03508814189 0)
(-0.02579934998 0.05001788282 0)
(-0.04440735193 0.05894762749 0)
(-0.06442985051 0.06269005225 0)
(-0.08455128382 0.06189024592 0)
(-0.1036864853 0.05687895516 0)
(-0.1208037402 0.04776536734 0)
(-0.1348664067 0.03464817899 0)
(-0.1448247495 0.01785595791 0)
(-0.1496536113 -0.001840344718 0)
(-0.1484397247 -0.02307407995 0)
(-0.1405340313 -0.04381857758 0)
(-0.1257810189 -0.06145508368 0)
(-0.1048132037 -0.07305968347 0)
(-0.0793448877 -0.07599609316 0)
(-0.05230544318 -0.0688234498 0)
(-0.02760678075 -0.05230133214 0)
(-0.00944379872 -0.02997974005 0)
(-0.0004470898151 -0.007847366593 0)
(-0.001212715148 0.01961349139 0)
(-0.0119812926 0.04863583379 0)
(-0.02892901597 0.06810540945 0)
(-0.04959415961 0.07939376287 0)
(-0.07175636471 0.08392816893 0)
(-0.0940631374 0.08270570387 0)
(-0.1154619649 0.07621352998 0)
(-0.1349736183 0.06459352716 0)
(-0.1515936138 0.04791715037 0)
(-0.1642412333 0.02647885522 0)
(-0.1717535737 0.001060618501 0)
(-0.1729400963 -0.02684873375 0)
(-0.1667221412 -0.05489939851 0)
(-0.1523957974 -0.07984496005 0)
(-0.1300385073 -0.09775232588 0)
(-0.1010132837 -0.1046354768 0)
(-0.0684073756 -0.09765353049 0)
(-0.03710045889 -0.0767352292 0)
(-0.01308954715 -0.04590421129 0)
(-0.0007025511106 -0.01311587804 0)
(-0.001301800904 0.02610927899 0)
(-0.01286248868 0.06347480053 0)
(-0.03100729497 0.08783179817 0)
(-0.05307366927 0.10163279 0)
(-0.07671822969 0.1070462371 0)
(-0.10059945 0.1055098345 0)
(-0.1237478988 0.09771359966 0)
(-0.1452962495 0.08383522185 0)
(-0.1643384358 0.06387661937 0)
(-0.1798308073 0.03800827614 0)
(-0.1905340871 0.006887457078 0)
(-0.1950155228 -0.02804502226 0)
(-0.191748324 -0.06428847971 0)
(-0.1793672379 -0.09808561685 0)
(-0.1571435598 -0.1244496409 0)
(-0.1256968098 -0.1377012418 0)
(-0.08783697934 -0.1328640744 0)
(-0.0492085975 -0.1080602784 0)
(-0.01800997575 -0.0671549836 0)
(-0.001101503637 -0.02043035032 0)
(-0.001328062572 0.03293686236 0)
(-0.0132262938 0.07905688266 0)
(-0.03190373077 0.1085161222 0)
(-0.05458114367 0.1249307097 0)
(-0.07885817672 0.1313079203 0)
(-0.1034448584 0.1296104049 0)
(-0.1275001098 0.1207851739 0)
(-0.1503285389 0.105060878 0)
(-0.1712015565 0.08233964077 0)
(-0.1892130191 0.05258593473 0)
(-0.2031660898 0.01619276771 0)
(-0.2115075122 -0.02564551306 0)
(-0.2123512145 -0.07052527662 0)
(-0.2036618611 -0.1144308396 0)
(-0.1837126222 -0.1514623754 0)
(-0.1519319628 -0.1740673962 0)
(-0.1101741764 -0.1743704643 0)
(-0.06423094763 -0.1472840777 0)
(-0.02460440096 -0.09514559529 0)
(-0.001727070673 -0.03054187682 0)
(-0.001298114722 0.03981944118 0)
(-0.0130893604 0.09478835228 0)
(-0.03159687087 0.1293805931 0)
(-0.0539857021 0.1483894789 0)
(-0.0778496941 0.1557358741 0)
(-0.1019847391 0.1539910976 0)
(-0.1257196237 0.1444249081 0)
(-0.1485897589 0.1273524579 0)
(-0.1701299057 0.1025734003 0)
(-0.1896947746 0.06979554162 0)
(-0.2062969538 0.02903373601 0)
(-0.218466073 -0.01896296672 0)
(-0.2241693476 -0.07218794613 0)
(-0.220848887 -0.1267635054 0)
(-0.2057412142 -0.1762728554 0)
(-0.1767080808 -0.2114416128 0)
(-0.1338229223 -0.2209488599 0)
(-0.08191404421 -0.194795926 0)
(-0.03322080659 -0.1313414351 0)
(-0.002693106127 -0.04442656206 0)
(-0.001239793352 0.04651674325 0)
(-0.01258326468 0.1100991551 0)
(-0.0302633329 0.1496039917 0)
(-0.05141397213 0.1709745835 0)
(-0.07365969423 0.1791163287 0)
(-0.09592141715 0.1772980034 0)
(-0.11774375 0.1671895114 0)
(-0.1389501619 0.1492502878 0)
(-0.1594199654 0.123210733 0)
(-0.1788916801 0.0885204678 0)
(-0.1967702487 0.04475839666 0)
(-0.2119184957 -0.007925483545 0)
(-0.2224737485 -0.0682423911 0)
(-0.2256795542 -0.1329293531 0)
(-0.2179415097 -0.195719949 0)
(-0.1954249303 -0.2462406544 0)
(-0.1556750565 -0.2697321253 0)
(-0.1010752989 -0.24970359 0)
(-0.04402834163 -0.1768943916 0)
(-0.004154091824 -0.06327436401 0)
(-0.001215584155 0.05290720031 0)
(-0.01201885175 0.1245561263 0)
(-0.028377635 0.1684121193 0)
(-0.04737646389 0.1915781143 0)
(-0.06670489026 0.2000498162 0)
(-0.08547843577 0.1978930208 0)
(-0.1035258247 0.1872578015 0)
(-0.1210180748 0.1688168172 0)
(-0.1382430014 0.1422935123 0)
(-0.1554138178 0.106928621 0)
(-0.1724752346 0.06187836892 0)
(-0.1888780205 0.006624066511 0)
(-0.2032656095 -0.05847771802 0)
(-0.2131376095 -0.1312885691 0)
(-0.2145806156 -0.206536585 0)
(-0.2023394286 -0.2738723096 0)
(-0.1710666174 -0.3159748722 0)
(-0.1192194096 -0.3091005712 0)
(-0.05677100349 -0.2320314563 0)
(-0.006307627728 -0.08842896007 0)
(-0.00134416275 0.05911676031 0)
(-0.01196998644 0.1380215415 0)
(-0.02681268428 0.1851925853 0)
(-0.04286153628 0.2090987736 0)
(-0.05793901653 0.2170296519 0)
(-0.07149882755 0.2139584433 0)
(-0.08377120295 0.2025744224 0)
(-0.09534514937 0.1838157849 0)
(-0.1069568202 0.1574652576 0)
(-0.1193312224 0.122637161 0)
(-0.1330212317 0.07814930504 0)
(-0.1481962016 0.02286286646 0)
(-0.1643139501 -0.04385714857 0)
(-0.1796511553 -0.1213596159 0)
(-0.1906853866 -0.2061969975 0)
(-0.1915148157 -0.2895292619 0)
(-0.1742101038 -0.3533643199 0)
(-0.1323475332 -0.3675427234 0)
(-0.07038360026 -0.2951655042 0)
(-0.009375478266 -0.1212057997 0)
(-0.001841009864 0.06571724124 0)
(-0.01339222467 0.1508490759 0)
(-0.02692414831 0.1995957614 0)
(-0.03933704262 0.2224899409 0)
(-0.04877040148 0.2284975174 0)
(-0.05529762003 0.2235987536 0)
(-0.05974413194 0.2110148672 0)
(-0.06320492592 0.1919416948 0)
(-0.06687771162 0.1662520783 0)
(-0.07197100298 0.1330140706 0)
(-0.07961063235 0.09083643319 0)
(-0.09069547787 0.03812158907 0)
(-0.1056348687 -0.02664063066 0)
(-0.1238779184 -0.1043168622 0)
(-0.1430936718 -0.1938357337 0)
(-0.1579253106 -0.2893755885 0)
(-0.1590095979 -0.375006367 0)
(-0.1351103984 -0.4171073832 0)
(-0.08251238756 -0.3618557191 0)
(-0.01351138314 -0.1624284364 0)
(-0.003078457249 0.0740191152 0)
(-0.01777078884 0.1640840661 0)
(-0.03053310131 0.2115368821 0)
(-0.03848197981 0.2306817393 0)
(-0.0405612335 0.2327859552 0)
(-0.03797167509 0.2248458234 0)
(-0.03241537619 0.2104652011 0)
(-0.02559153384 0.1909773575 0)
(-0.01914526513 0.1663007895 0)
(-0.01468702468 0.135495726 0)
(-0.013797659 0.09708834306 0)
(-0.01798686603 0.04924624313 0)
(-0.02855759274 -0.01009725275 0)
(-0.04627487907 -0.08301043976 0)
(-0.07060159607 -0.1708007386 0)
(-0.09805927908 -0.2717018896 0)
(-0.1197793366 -0.3748759782 0)
(-0.1211443171 -0.4482930722 0)
(-0.08901003988 -0.4241475192 0)
(-0.0184915095 -0.211623968 0)
(-0.00557384757 0.08656822321 0)
(-0.02710815389 0.1795564817 0)
(-0.03937088645 0.2208351766 0)
(-0.04095913221 0.2321198874 0)
(-0.03286393527 0.227736802 0)
(-0.01826491642 0.2153924421 0)
(-6.898780393e-05 0.198663578 0)
(0.01936158309 0.1787391433 0)
(0.03799962536 0.1554409529 0)
(0.05396336488 0.1277996562 0)
(0.06538709287 0.09435139595 0)
(0.070348496 0.05325361627 0)
(0.06686189113 0.002284822328 0)
(0.05300329667 -0.06122544828 0)
(0.02737446974 -0.1403231507 0)
(-0.009406445562 -0.2373643701 0)
(-0.05127918808 -0.3490510986 0)
(-0.08316355682 -0.4514737216 0)
(-0.08344606871 -0.4710364611 0)
(-0.02311371282 -0.2666611469 0)
(-0.009892582063 0.1087171183 0)
(-0.04296147285 0.1995884914 0)
(-0.05216706492 0.2257532219 0)
(-0.04168672376 0.2232970516 0)
(-0.01772182657 0.209583836 0)
(0.01345888181 0.1918314771 0)
(0.04767910478 0.1727312503 0)
(0.08210701969 0.1528455572 0)
(0.114577522 0.1316633079 0)
(0.1431875305 0.1081184413 0)
(0.1660332361 0.08081893803 0)
(0.1810368501 0.04809914538 0)
(0.1858264903 0.007949981404 0)
(0.1776969514 -0.04223250189 0)
(0.1536998841 -0.1061320889 0)
(0.1114609349 -0.1890444247 0)
(0.05228976863 -0.2959420364 0)
(-0.0125383498 -0.4176946112 0)
(-0.05676405955 -0.4889049123 0)
(-0.02465663604 -0.3239977964 0)
(-0.01780829647 0.1516809923 0)
(-0.06128713486 0.2236403826 0)
(-0.05224120513 0.2176757009 0)
(-0.01430884112 0.1949604232 0)
(0.03549150872 0.1710891236 0)
(0.08871159877 0.1491089826 0)
(0.1413656227 0.1294149292 0)
(0.1911668137 0.1114136575 0)
(0.2365183161 0.09406541463 0)
(0.2760187537 0.07618814239 0)
(0.3081360083 0.05654664713 0)
(0.3310005586 0.03381562792 0)
(0.3422330724 0.006476870523 0)
(0.338837324 -0.02745384071 0)
(0.3170046923 -0.07113638645 0)
(0.2721500876 -0.1305071811 0)
(0.2000764972 -0.2164722921 0)
(0.10295378 -0.3383412937 0)
(0.004338892367 -0.4567728388 0)
(-0.01596625809 -0.3693058704 0)
(-0.02421891985 0.2082759937 0)
(-0.03790721984 0.2303677105 0)
(0.03728382362 0.1765409796 0)
(0.125071891 0.1368622702 0)
(0.2058508771 0.1090689469 0)
(0.2780371019 0.088225375 0)
(0.3422957305 0.07213072622 0)
(0.3989136269 0.05919527224 0)
(0.4479382253 0.04803715187 0)
(0.4891378266 0.03752432584 0)
(0.521840553 0.02671438671 0)
(0.5448115381 0.01475890551 0)
(0.5561671106 0.000784190099 0)
(0.5532539538 -0.01628203763 0)
(0.5322561181 -0.03827819507 0)
(0.4877071627 -0.06914376388 0)
(0.411118548 -0.1190974044 0)
(0.2908705129 -0.2093517949 0)
(0.1331221201 -0.3382891431 0)
(0.03876875435 -0.3403615621 0)
(0.2418884298 0.1091356469 0)
(0.3134636156 0.09712109412 0)
(0.4443325923 0.05696902021 0)
(0.5496427233 0.03510661678 0)
(0.6240734018 0.0237348766 0)
(0.6796152326 0.0167043532 0)
(0.7234898687 0.01197513954 0)
(0.7587952462 0.008690704911 0)
(0.787082025 0.006253854349 0)
(0.8091483375 0.004232629217 0)
(0.8251724582 0.002332155708 0)
(0.8347836624 0.0003447413584 0)
(0.8371189133 -0.001906097065 0)
(0.8307576103 -0.004588241117 0)
(0.8133963617 -0.008027256539 0)
(0.7811414107 -0.01288568688 0)
(0.7256990239 -0.02123221419 0)
(0.6298677303 -0.03809534128 0)
(0.4592690961 -0.08555216469 0)
(0.3048933777 -0.1256979933 0)
)
;

boundaryField
{
    movingWall
    {
        type            fixedValue;
        value           uniform (1 0 0);
    }
    fixedWalls
    {
        type            fixedValue;
        value           uniform (0 0 0);
    }
    frontAndBack
    {
        type            empty;
    }
}


// ************************************************************************* //
