/*--------------------------------*- C++ -*----------------------------------*\
  =========                 |
  \\      /  F ield         | OpenFOAM: The Open Source CFD Toolbox
   \\    /   O peration     | Website:  https://openfoam.org
    \\  /    A nd           | Version:  13
     \\/     M anipulation  |
\*---------------------------------------------------------------------------*/
FoamFile
{
    format      ascii;
    class       scalarField;
    location    "36.64";
    object      p_all;
}
// * * * * * * * * * * * * * * * * * * * * * * * * * * * * * * * * * * * * * //


400
(
1.274446645e-07
-0.0005473589639
-0.0008894108245
-0.001016913268
-0.0009380584074
-0.0006851857562
-0.0002958771204
0.0001938520136
0.0007474656297
0.001324492698
0.001879316898
0.002359088915
0.00270840678
0.002874159281
0.002814802889
0.002512347149
0.001987274107
0.001296730275
0.0006377968414
4.189187178e-05
0.0005882967624
6.999540415e-06
-0.0003567300213
-0.0004990661094
-0.0004684378567
-0.0002913918627
2.712196858e-06
0.0003845826701
0.0008227845289
0.001280026844
0.00171646384
0.002080958258
0.002323159105
0.002395710469
0.002264734724
0.001921443925
0.001392577144
0.0007431921625
0.0001455297482
-0.0005171780386
0.0009525532323
0.0003081347699
-9.311269593e-05
-0.000239431479
-0.0002333138162
-0.0001048381844
0.0001219724963
0.0004258502623
0.0007830670021
0.001161599551
0.001529630352
0.00183302284
0.002021854267
0.002047418745
0.001874590718
0.001493547959
0.0009282564895
0.0002352675782
-0.0004632212294
-0.001300218058
0.0009762703027
0.0002580857076
-0.0001921772762
-0.0003444678099
-0.0003537154849
-0.0002567292822
-7.415350369e-05
0.0001814274216
0.0004964859277
0.00085079155
0.001203147268
0.001510626205
0.001712423182
0.001748010575
0.00156852758
0.001150588628
0.0005060075014
-0.0003184850808
-0.001233833655
-0.002384650966
0.0004806100011
-0.0002848768638
-0.0007638007048
-0.0009155183736
-0.0009365450477
-0.000868109919
-0.0007251949054
-0.0005082614902
-0.000217025227
0.0001392732478
0.0005302055274
0.0009075024048
0.001199939681
0.001326630024
0.001211157645
0.000800323412
8.007384267e-05
-0.000917531436
-0.002127525725
-0.00365603438
-0.0006862509322
-0.001467020345
-0.001956069456
-0.002107138122
-0.002149933464
-0.002126590123
-0.002042202712
-0.00187956876
-0.001617446971
-0.001245415619
-0.0007790123837
-0.0002627681854
0.0002207038807
0.0005615761912
0.0006379329811
0.0003416343574
-0.0003929223484
-0.001563962857
-0.0031347512
-0.00514199114
-0.00266172572
-0.003423430774
-0.003915284496
-0.004080661327
-0.00417803966
-0.004247106368
-0.004278130481
-0.004229069741
-0.004047455363
-0.003689495925
-0.003140647216
-0.002426662454
-0.001633431772
-0.0009033681443
-0.0004247554896
-0.0003986133438
-0.0009881551869
-0.002260494217
-0.004232653767
-0.006828232816
-0.005554914207
-0.006269847554
-0.006768129464
-0.006982068821
-0.007195457758
-0.007443362668
-0.007697076317
-0.007882143272
-0.007902104099
-0.007660539146
-0.007087271074
-0.006159421896
-0.004943684618
-0.003604814194
-0.002413885082
-0.00171446403
-0.001843146083
-0.003014956994
-0.005368390588
-0.008662185652
-0.009435130167
-0.01008147292
-0.01059834619
-0.01091058598
-0.01132598831
-0.01187587472
-0.01251125469
-0.01311963007
-0.0135477866
-0.01362335224
-0.01318247183
-0.01212111748
-0.01042802813
-0.008256566845
-0.005956343769
-0.004061921825
-0.003190185703
-0.003843085379
-0.006426481263
-0.01049167053
-0.01431690535
-0.01487589257
-0.01542288474
-0.01588213354
-0.01658997687
-0.01758011378
-0.01878697708
-0.02005910761
-0.02117759113
-0.02187364079
-0.02185741644
-0.02087229881
-0.01877195905
-0.01562013553
-0.01179511192
-0.008037376865
-0.005359936941
-0.004760196906
-0.007181219273
-0.0119793018
-0.02015442197
-0.02060464133
-0.0211748272
-0.02179683334
-0.02285219609
-0.02439046243
-0.02633933808
-0.02851372549
-0.03062766391
-0.03230359414
-0.03309534779
-0.03254079526
-0.03028257293
-0.02617877299
-0.02052496981
-0.01420400105
-0.008691612145
-0.005726684171
-0.007219332274
-0.01246648054
-0.02685645066
-0.02716220446
-0.0277026335
-0.02842304563
-0.02978924964
-0.03188919773
-0.0346589937
-0.03788976256
-0.04123404848
-0.04420517165
-0.04618824304
-0.04647888959
-0.04446318859
-0.03966013581
-0.03212112151
-0.02269884541
-0.01326665319
-0.00648601436
-0.005808707366
-0.01076530397
-0.03433480774
-0.0344182154
-0.03478954732
-0.03540462358
-0.03689193463
-0.03941009408
-0.04292014807
-0.04719779204
-0.05184019106
-0.05625850749
-0.05967986378
-0.06119102555
-0.05977964774
-0.05465589184
-0.04544116679
-0.03269980682
-0.0184531862
-0.006245993742
-0.001674037921
-0.004873672967
-0.04260994865
-0.04227951774
-0.0421957321
-0.04229604599
-0.04351379025
-0.04611648982
-0.05009971382
-0.05522049346
-0.06101518329
-0.06679630001
-0.07164024768
-0.07441314812
-0.07383270682
-0.06867502389
-0.0580720842
-0.04206195511
-0.02244016352
-0.0032573308
0.007346963105
0.008341358692
-0.05201045741
-0.05076110668
-0.04967792474
-0.04857901857
-0.04892688162
-0.05112031138
-0.05517301207
-0.0607963665
-0.06743568053
-0.07429005385
-0.08028293685
-0.08407639331
-0.08413082681
-0.07883771244
-0.06684297382
-0.04752358106
-0.02212760862
0.005501655144
0.02471525755
0.03352729731
-0.06365605958
-0.06018935258
-0.05709749332
-0.05376454002
-0.05246568183
-0.05368035096
-0.05736519848
-0.06313839983
-0.0702628753
-0.07780134242
-0.08449303658
-0.08878625391
-0.0888985761
-0.08283985209
-0.06885093661
-0.04562095851
-0.01375163607
0.02441679698
0.05553955033
0.07735579036
-0.08018661362
-0.07107516953
-0.06412142437
-0.05716572822
-0.05343188908
-0.05321597535
-0.05625973484
-0.0619147625
-0.06925991096
-0.07711790262
-0.0840131695
-0.08815262993
-0.0874810644
-0.07965678558
-0.06247963323
-0.03405054658
0.005564842806
0.05859402392
0.1058230627
0.1480677701
-0.1105079915
-0.08585530178
-0.07160727222
-0.05897231028
-0.05191471958
-0.04988447399
-0.05210429108
-0.05751045256
-0.06486128265
-0.07271016772
-0.07934158793
-0.08271488551
-0.08052061128
-0.06988751333
-0.04823257856
-0.01272261313
0.03823616477
0.1071321334
0.177978696
0.2564765342
-0.1684381576
-0.09990945497
-0.07500955722
-0.05479918956
-0.04462034347
-0.04158688872
-0.04371953245
-0.04938347328
-0.05701913752
-0.06497271045
-0.07136357786
-0.07398184792
-0.07013064143
-0.05701411699
-0.03102871651
0.01192932558
0.07559951576
0.1664042834
0.2761620616
0.4377043245
-0.3984294329
-0.1381005967
-0.07497171357
-0.04708973878
-0.03355082369
-0.03003164449
-0.03280386513
-0.03926669035
-0.04756048846
-0.05594104384
-0.06250205676
-0.06503111988
-0.06099635144
-0.04697014143
-0.01875692993
0.02993545296
0.1069557089
0.2334272975
0.419880252
0.7800234334
)


// ************************************************************************* //
