/*--------------------------------*- C++ -*----------------------------------*\
  =========                 |
  \\      /  F ield         | OpenFOAM: The Open Source CFD Toolbox
   \\    /   O peration     | Website:  https://openfoam.org
    \\  /    A nd           | Version:  13
     \\/     M anipulation  |
\*---------------------------------------------------------------------------*/
FoamFile
{
    format      ascii;
    class       vectorField;
    location    "28.71";
    object      U_all;
}
// * * * * * * * * * * * * * * * * * * * * * * * * * * * * * * * * * * * * * //


400
(
(1.094285876e-05 -3.787321301e-05 0)
(-0.0006661592723 0.0004130324955 -1.547261392e-23)
(-0.002185378987 0.0009203854613 0)
(-0.0040478083 0.001312768093 0)
(-0.005971817855 0.001535049576 6.839543521e-25)
(-0.007762712891 0.001569830539 4.152235073e-24)
(-0.009284461644 0.001423548969 -7.355113909e-24)
(-0.01043585022 0.001119714525 7.549524576e-24)
(-0.01113672005 0.0006960804532 -2.096902645e-25)
(-0.01132701868 0.0002030804111 -3.996910014e-24)
(-0.0109716875 -0.0003002281926 5.806053829e-24)
(-0.01007225738 -0.0007475102591 -5.931526901e-23)
(-0.008679829649 -0.001075556605 -6.55467621e-23)
(-0.00690282511 -0.001233038706 -7.786348001e-23)
(-0.004910731274 -0.001192634089 4.574857515e-24)
(-0.002927241374 -0.0009619186298 -4.13924602e-24)
(-0.00120531847 -0.0005912135964 -1.99962229e-22)
(-1.908955112e-05 -0.0001698881626 0)
(0.0005181381057 0.0001720788813 1.513299271e-25)
(0.0002227467176 0.0003059746299 -2.600904967e-24)
(-0.0002633908407 0.0008289038192 1.386180443e-25)
(-0.002703312841 0.003383782564 1.556988136e-23)
(-0.006907227544 0.005604427813 1.549048776e-25)
(-0.01195220907 0.007008125569 -8.482989514e-25)
(-0.01713487079 0.007553691651 1.160301015e-24)
(-0.02197512442 0.007294120396 1.304939403e-23)
(-0.02611048795 0.006321829036 1.407828898e-24)
(-0.02926534943 0.004754150579 -7.30076008e-24)
(-0.03122642608 0.002737136745 1.016189169e-23)
(-0.03184171634 0.000452417714 4.512608587e-24)
(-0.03102734598 -0.001884109504 -6.32153455e-24)
(-0.02879293572 -0.004022978382 2.961499224e-24)
(-0.02527120097 -0.00570829552 3.896566331e-23)
(-0.02073182006 -0.006707350829 -1.955417972e-24)
(-0.01558955151 -0.006854089766 3.755799823e-24)
(-0.01038510591 -0.006097429575 -9.745461305e-23)
(-0.00573027732 -0.004546172336 9.642216686e-23)
(-0.002233387149 -0.002507424925 -3.968577847e-25)
(-0.000181793556 -0.0005023909765 4.068666104e-25)
(8.343137763e-05 0.0006099116458 0)
(-0.0004188259891 0.002935028995 -2.913576227e-25)
(-0.004647840119 0.008803896225 1.706243552e-23)
(-0.01137184439 0.0132402559 -8.244132552e-24)
(-0.01932708116 0.01579185148 -2.069242536e-25)
(-0.02747381293 0.0165298124 2.032814747e-25)
(-0.03511739912 0.01564424854 7.437080537e-27)
(-0.04171299094 0.01335984217 -1.239706537e-24)
(-0.04683521557 0.009919683866 -4.563716911e-25)
(-0.05014937144 0.005602401799 -1.064055072e-23)
(-0.0514118121 0.0007444481596 0)
(-0.05047746196 -0.004241699639 0)
(-0.04733665049 -0.008887064625 2.672053489e-23)
(-0.04215893932 -0.0126816227 2.81401734e-23)
(-0.0353141148 -0.01513590057 -1.646823469e-24)
(-0.02738978431 -0.01586175943 4.848090354e-23)
(-0.01916995502 -0.01467323718 9.423629385e-23)
(-0.01156086322 -0.01169354204 3.980155475e-23)
(-0.00546540553 -0.007450725915 4.156529166e-25)
(-0.001451107608 -0.002936059688 1.066186739e-25)
(-9.072914988e-05 0.0002258562979 0)
(-0.0005024608404 0.006045270411 -4.252850758e-23)
(-0.006402672173 0.0163705473 -1.696461787e-23)
(-0.01553484586 0.02355904089 8.171010836e-24)
(-0.02627881469 0.02744129346 0)
(-0.03728703677 0.02832069477 0)
(-0.04768983344 0.026587439 0)
(-0.05679600068 0.02263098314 -4.52916739e-26)
(-0.06405315042 0.0168359558 -2.126122124e-24)
(-0.06901009695 0.009622139503 0)
(-0.07130756786 0.001491100974 1.637961184e-24)
(-0.07070786431 -0.006936366127 2.804343525e-25)
(-0.06712979075 -0.01492997977 -2.812195622e-25)
(-0.06069854202 -0.0216670266 0)
(-0.05180709381 -0.02631578682 4.135421299e-23)
(-0.04114961217 -0.02816045476 -4.683737347e-23)
(-0.02971950032 -0.02677351476 -2.764252286e-23)
(-0.01873705403 -0.02221516542 -3.965372062e-23)
(-0.009487981753 -0.01521915706 7.795770642e-25)
(-0.002976871996 -0.007298191783 9.785440002e-23)
(-0.0002318798279 -0.0008661883796 0)
(-0.0005316080352 0.01009488926 4.273536105e-23)
(-0.00798350094 0.0259518738 4.778880592e-25)
(-0.01939664841 0.03642838334 -4.669732521e-25)
(-0.03282344347 0.04185470979 0)
(-0.04664635723 0.0428943648 7.776631101e-25)
(-0.0598516297 0.04020031375 -7.668805284e-25)
(-0.0716321397 0.03434708945 3.670313421e-23)
(-0.0813266637 0.02585643825 1.846139969e-23)
(-0.08836512279 0.01527291803 6.233331843e-24)
(-0.09225380585 0.003246219437 -1.639869431e-24)
(-0.09260294352 -0.009407632073 0)
(-0.08917476944 -0.02167447404 4.373913634e-25)
(-0.08195910387 -0.03236707078 1.010130979e-23)
(-0.07126828327 -0.04021208851 -4.351590681e-23)
(-0.05781974599 -0.04402006264 1.934285624e-24)
(-0.04278551783 -0.04294794923 4.221812801e-23)
(-0.02775431182 -0.0368332165 -3.849007778e-25)
(-0.01455052923 -0.02652706562 0)
(-0.004859434201 -0.01408449975 5.436492989e-23)
(-0.0003641458108 -0.002846963548 -2.564564579e-22)
(-0.000527214808 0.01499909128 9.837315366e-23)
(-0.009377818823 0.03738976727 -4.904551502e-25)
(-0.02288157248 0.05170161492 0)
(-0.03883000915 0.05894115362 0)
(-0.05538597286 0.06025508666 -8.730031953e-23)
(-0.07142802055 0.05661843356 -8.497049815e-23)
(-0.08606567228 0.04880124219 -4.065374016e-23)
(-0.09854990225 0.03743952452 -1.503369978e-23)
(-0.1081935224 0.02315974142 -5.36401147e-24)
(-0.1143434519 0.006709765553 -8.172233578e-24)
(-0.1164036259 -0.01093266289 6.598157395e-24)
(-0.1138928074 -0.02848904573 8.82121218e-24)
(-0.1065478603 -0.04436995039 -1.892270584e-23)
(-0.09446732504 -0.05675276743 4.584458449e-24)
(-0.07826799574 -0.0637824156 0)
(-0.05922853327 -0.06393444179 -1.575254115e-23)
(-0.03933954681 -0.0565377615 -2.354442732e-26)
(-0.02114174496 -0.04235783403 0)
(-0.00731865377 -0.02398218192 -1.520143477e-22)
(-0.0005216115591 -0.005925535789 6.055229772e-22)
(-0.0004990767811 0.0206454982 -9.770307141e-23)
(-0.01052940131 0.05045378588 2.831546431e-22)
(-0.02582931421 0.06912432351 1.52664566e-22)
(-0.04402094899 0.078491714 3.618618755e-24)
(-0.06310678492 0.08029392791 -7.319215266e-23)
(-0.08190328689 0.07587969903 9.041372041e-23)
(-0.09947674184 0.06621634 -3.58954552e-24)
(-0.1150217446 0.0520165857 -1.728823795e-24)
(-0.1277508632 0.03392344344 2.523640837e-24)
(-0.1368461812 0.01270241842 7.380040324e-24)
(-0.1414699868 -0.01058752053 -6.498072529e-24)
(-0.1408238025 -0.03445975267 -9.782093485e-24)
(-0.1342736649 -0.05692707994 -3.261777176e-23)
(-0.1215442072 -0.07553243454 -3.657802946e-23)
(-0.1029665911 -0.08754185448 5.6384718e-25)
(-0.07976318592 -0.0903913959 0)
(-0.0542664797 -0.08244455896 0)
(-0.02987141954 -0.0639769674 -2.905270221e-24)
(-0.01066278228 -0.03798774307 2.969701832e-24)
(-0.000735086887 -0.01050085562 1.027860233e-22)
(-0.0004479142421 0.02687220696 0)
(-0.01134913637 0.06480684983 2.00195447e-22)
(-0.0280157602 0.08829521135 8.962016363e-23)
(-0.04799817442 0.1001224513 0)
(-0.06920545865 0.1027066502 1.569668986e-22)
(-0.09044302194 0.09781490964 0)
(-0.1107823322 0.08661034682 -1.428263463e-22)
(-0.1294084433 0.06983905563 6.514842042e-24)
(-0.1454761651 0.04808213275 0)
(-0.1580341505 0.02201763066 0)
(-0.1660123156 -0.007334111853 -1.374219552e-24)
(-0.1682661585 -0.03838784287 -9.314838444e-25)
(-0.1637055358 -0.06883902006 1.491726636e-22)
(-0.1515200361 -0.09558189235 -4.704630914e-23)
(-0.1315127391 -0.1148289459 -2.560188159e-24)
(-0.104559042 -0.1225694511 1.533948989e-24)
(-0.07309310212 -0.115551027 -1.558145933e-24)
(-0.04134998668 -0.09283058805 0)
(-0.01525221521 -0.05740735856 3.203392197e-24)
(-0.001044300732 -0.01714706481 -1.012805306e-21)
(-0.0003744682892 0.03346269285 0)
(-0.01174999041 0.07998835475 -1.128075177e-22)
(-0.02920689605 0.1086379938 -6.190691401e-22)
(-0.0503171323 0.1232222059 -3.755071727e-22)
(-0.07296272009 0.1269085548 0)
(-0.09598902211 0.121924562 4.119204667e-22)
(-0.1185266622 0.1096340804 1.260814697e-22)
(-0.1398138735 0.0907819381 -5.581436515e-24)
(-0.1590213299 0.06581369763 5.553811404e-24)
(-0.1751452442 0.03520886807 0)
(-0.186955135 -0.0001964108176 2.911956623e-23)
(-0.1930164167 -0.03889695374 4.695422114e-24)
(-0.1917801802 -0.07843808274 -1.076675666e-22)
(-0.1817866917 -0.1151855764 8.002921804e-23)
(-0.1620563766 -0.144258896 -2.419473233e-22)
(-0.1327056476 -0.1598538105 0)
(-0.0957784723 -0.1563103376 0)
(-0.05601608119 -0.1302973669 0)
(-0.0214784895 -0.08381090423 0)
(-0.001500374879 -0.02665503256 5.571569657e-22)
(-0.0002873954652 0.04016039353 0)
(-0.01169356165 0.09543520944 -3.492787224e-22)
(-0.02924427843 0.1294061647 8.932318925e-22)
(-0.05060927766 0.1469286173 3.616951571e-22)
(-0.07370053619 0.1519736169 0)
(-0.09745113332 0.1472747063 -3.862317984e-22)
(-0.1211065332 0.1344183424 -3.174266564e-23)
(-0.1440319745 0.1141387632 3.332960618e-22)
(-0.1655137849 0.0866998028 1.769400072e-22)
(-0.1846242957 0.05229127785 -4.05998813e-23)
(-0.2001320194 0.01141749578 1.656807099e-23)
(-0.2104616861 -0.03471364486 -8.264794678e-24)
(-0.2137203041 -0.08376481482 3.371703567e-22)
(-0.2078210174 -0.1318746363 0)
(-0.1908233507 -0.1732744976 2.420642127e-22)
(-0.161633124 -0.200258184 5.773926367e-24)
(-0.1211659062 -0.20401108 -5.860032688e-24)
(-0.07384965654 -0.1772110975 1.5481649e-22)
(-0.0297177601 -0.1188636539 -5.434596162e-24)
(-0.00217953429 -0.0400537995 0)
(-0.0002117286593 0.04671600785 0)
(-0.01125001863 0.1105488789 0)
(-0.02815623657 0.1497342586 -5.022519058e-22)
(-0.04874475149 0.1701504103 -1.880919642e-23)
(-0.07100078416 0.1766244164 2.038295724e-23)
(-0.09399439503 0.1724515236 -2.014229201e-23)
(-0.1171432825 0.1594862221 -2.316794248e-23)
(-0.1400177885 0.1384799287 -3.02969187e-22)
(-0.1621327248 0.1095158063 6.698571002e-23)
(-0.1827957445 0.072451913 4.51299162e-23)
(-0.2009834023 0.02734961786 -4.577531823e-23)
(-0.2152268728 -0.02508639495 0)
(-0.2235560555 -0.08298271748 -7.838971126e-23)
(-0.2234630284 -0.1427247633 0)
(-0.2120677201 -0.1981809889 -3.739402015e-22)
(-0.1867432081 -0.2400761994 5.244651754e-22)
(-0.1464435887 -0.2560761879 0)
(-0.09394548609 -0.2331199456 -1.493719678e-22)
(-0.04021990918 -0.1639606724 1.937266955e-22)
(-0.003201088839 -0.05861038449 -3.411247273e-22)
(-0.0002015526517 0.0529754767 0)
(-0.01067267194 0.1248163299 9.182591542e-22)
(-0.02628456371 0.1687412355 -2.440603863e-23)
(-0.04501120593 0.1916441774 9.193064623e-22)
(-0.064946124 0.1992908203 -2.512003927e-23)
(-0.08536645291 0.1956093224 2.838754925e-23)
(-0.1059307542 0.1827878333 -2.8128418e-23)
(-0.1264926356 0.1616578027 -1.660869637e-23)
(-0.1468999329 0.1321759958 -5.260080447e-22)
(-0.1668460935 0.0938965314 -8.906380002e-24)
(-0.1857305998 0.04640609402 9.659941565e-24)
(-0.2024784688 -0.01023729336 3.313003938e-22)
(-0.215415737 -0.07499746648 -5.820585846e-22)
(-0.2220211896 -0.145030301 0)
(-0.2188033438 -0.214675062 8.887020278e-22)
(-0.201625788 -0.2740005575 -4.940602645e-22)
(-0.1668638694 -0.3075800826 -1.572131174e-23)
(-0.114021917 -0.2953801618 0)
(-0.05288474644 -0.2195794917 -1.889905411e-22)
(-0.004749177301 -0.08377248063 3.36030993e-22)
(-0.000364212745 0.05902284682 1.550967406e-23)
(-0.0104958364 0.1379873201 -8.763932106e-22)
(-0.02441409512 0.185679272 -1.157030405e-21)
(-0.04026753973 0.2101372183 -8.628730313e-22)
(-0.05630767465 0.2182336807 0)
(-0.07214901719 0.2146179896 3.513714675e-23)
(-0.08779273435 0.2018784151 -7.29468235e-23)
(-0.1034568592 0.1810000804 5.867741901e-23)
(-0.1193990233 0.1518995485 3.021290113e-22)
(-0.1357938357 0.1139151626 -1.128170649e-23)
(-0.1526089411 0.06621459274 0)
(-0.169452847 0.008177730875 -3.603848317e-22)
(-0.1852767354 -0.06015921272 7.515520055e-22)
(-0.1980454549 -0.1372739381 8.831542964e-22)
(-0.2043551145 -0.2189253456 -5.296475049e-22)
(-0.1990981007 -0.2959703755 5.162547391e-22)
(-0.1760607134 -0.3514062886 1.078145816e-23)
(-0.130089109 -0.3584141257 -1.095459457e-23)
(-0.06688800858 -0.2843268797 -8.218003136e-23)
(-0.007083311771 -0.1169961092 0)
(-0.0009095933022 0.06540015037 -1.911443178e-23)
(-0.0116760511 0.150280939 -1.326938193e-21)
(-0.02388910991 0.2000649634 1.094210499e-21)
(-0.03601384771 0.2244205815 6.734787395e-22)
(-0.0465736695 0.231657744 6.014504964e-22)
(-0.05577108644 0.2272384487 6.64381816e-22)
(-0.064113258 0.2141768089 -4.45858412e-23)
(-0.07227649786 0.1936490444 -3.461271791e-22)
(-0.08097067308 0.1656027233 2.152124006e-22)
(-0.09087290728 0.1292708843 0)
(-0.1025557469 0.08353118064 0)
(-0.1163632073 0.0272006103 2.655358991e-22)
(-0.132159906 -0.0406194682 8.194375215e-23)
(-0.148926103 -0.1200121924 -2.821551178e-22)
(-0.1641291776 -0.2089294008 -5.411180879e-23)
(-0.1727883467 -0.300698546 1.301954752e-22)
(-0.1670315213 -0.3793321538 -3.400367497e-22)
(-0.1365294373 -0.4136444138 -1.595119357e-23)
(-0.08018254271 -0.3538319246 8.206772143e-23)
(-0.01050762052 -0.1594127204 -6.032404482e-22)
(-0.002260514103 0.07348865265 0)
(-0.01580371502 0.1626516418 2.145833018e-21)
(-0.02665077923 0.2117896767 0)
(-0.03422394996 0.2333938048 -1.351781426e-21)
(-0.03759472108 0.2377757757 6.184099057e-23)
(-0.03799774218 0.2312545771 -6.192964474e-22)
(-0.03668366564 0.2171893357 -4.756196913e-22)
(-0.03489145369 0.1968931426 8.301104075e-22)
(-0.0337895209 0.1703341838 -1.885664206e-22)
(-0.03449992339 0.1367222794 0)
(-0.03811687576 0.0947970851 0)
(-0.04565103689 0.04304333097 2.410641238e-23)
(-0.05790909773 -0.02013729037 -6.007116618e-22)
(-0.07514695719 -0.09620597498 -4.309505236e-22)
(-0.09645260798 -0.1855551063 4.63780209e-22)
(-0.1183469683 -0.2853562755 -6.488596188e-22)
(-0.1332720607 -0.3838381282 9.119724918e-23)
(-0.1265354069 -0.4504353158 2.938678787e-23)
(-0.08899164718 -0.4198530902 5.660552338e-22)
(-0.01526918529 -0.2111716698 6.021036762e-22)
(-0.005180912935 0.08598036794 0)
(-0.02525566948 0.1766287725 1.465583404e-22)
(-0.0348344551 0.2205955859 -4.917062545e-23)
(-0.03640074002 0.2354852399 7.642791284e-22)
(-0.03018564042 0.2343399709 -7.005246521e-22)
(-0.01916677887 0.2241597761 4.746396683e-23)
(-0.005616251965 0.2083521373 -1.018596436e-22)
(0.008568429246 0.1881238665 -3.389829779e-22)
(0.02179764456 0.1633910949 2.06279193e-22)
(0.03262661136 0.1333244305 0)
(0.03958342723 0.0966411665 0)
(0.04116904446 0.05174096168 -2.902632065e-22)
(0.03578382897 -0.003254966819 0)
(0.02198092892 -0.07058318496 -5.512128959e-22)
(-0.001265656963 -0.1525731671 -1.492310833e-23)
(-0.03310538144 -0.2505946437 2.559673431e-23)
(-0.06909290354 -0.3599338224 2.203027572e-22)
(-0.09227862709 -0.4575421313 4.788768107e-24)
(-0.08718104439 -0.4698125814 -5.789528355e-22)
(-0.0210312866 -0.2698969949 0)
(-0.01111632264 0.1085974896 0)
(-0.04248915139 0.1947150038 -8.848353092e-22)
(-0.04795561789 0.2258192115 -5.410971283e-22)
(-0.03919590721 0.2282130959 4.543750965e-22)
(-0.01877906046 0.2182323204 -1.709997827e-24)
(0.007663378862 0.202821589 -4.560973958e-23)
(0.03667887413 0.1847616417 5.696584499e-22)
(0.06582885282 0.1647116255 -2.76684791e-23)
(0.09327015324 0.142312781 -2.069750565e-22)
(0.1173880329 0.1166276038 3.142171064e-23)
(0.1365451043 0.08641166619 -3.425875524e-23)
(0.1489659494 0.05017699389 -3.690554807e-23)
(0.1525267068 0.006159502106 3.205600049e-22)
(0.144935944 -0.04796094832 6.11954141e-22)
(0.1235153241 -0.1153050151 -5.101110792e-22)
(0.08633479428 -0.200419348 -1.61601175e-22)
(0.03199042082 -0.3067804911 1.53135174e-22)
(-0.02362156899 -0.4239835453 7.293714611e-23)
(-0.06492426777 -0.4871610865 1.91330013e-21)
(-0.02509973587 -0.329154324 2.9550011e-21)
(-0.02004680005 0.1460727853 -4.390168663e-23)
(-0.06416412343 0.2112955577 4.417341172e-23)
(-0.05070250106 0.2177299001 1.000176906e-21)
(-0.01934133985 0.2014677494 -8.270120671e-24)
(0.02414410075 0.180907321 0)
(0.07154050398 0.1606930469 4.363648636e-23)
(0.119069496 0.1416493185 -2.27381353e-22)
(0.1644758078 0.1233180366 -9.027802048e-23)
(0.2062241599 0.1048116854 3.680674551e-23)
(0.2429633658 0.08507145509 -1.701633161e-23)
(0.2732198821 0.06296161245 3.429928783e-23)
(0.2952528294 0.0372631286 -6.592604204e-23)
(0.3066964253 0.006535282182 -9.30382203e-23)
(0.304973257 -0.03087749377 1.517024826e-22)
(0.2863931574 -0.07786273781 0)
(0.2470564358 -0.1399299179 1.505559307e-22)
(0.1810919218 -0.2266299208 2.560018191e-22)
(0.09604427702 -0.3443894279 0)
(-0.006697731105 -0.4552209505 -3.675648676e-21)
(-0.01922410083 -0.3777536928 -2.892630249e-21)
(-0.02591950001 0.2276829272 -9.514178447e-22)
(-0.03998322406 0.2238216856 -1.388965654e-22)
(0.03656134576 0.1810585083 -2.335552869e-22)
(0.1090501826 0.1451058209 -1.193727011e-22)
(0.1817188679 0.1172444218 -4.295762244e-23)
(0.2490086839 0.09627894054 9.782981034e-23)
(0.3100331606 0.08002498771 -1.408564006e-22)
(0.3646203365 0.06656807485 1.297152528e-22)
(0.4126246072 0.05449175915 -8.619981023e-23)
(0.4536243872 0.04270896891 1.132188825e-25)
(0.4867872689 0.03032304558 1.52772231e-23)
(0.5107446032 0.01652910829 7.997109631e-23)
(0.5236593053 0.0005366101619 -1.811102766e-22)
(0.5231794653 -0.018633639 -1.61712693e-22)
(0.5052320946 -0.0428647139 -4.26283411e-23)
(0.4658713338 -0.07633226417 0)
(0.3952695233 -0.1286089233 -1.846503965e-22)
(0.2916070095 -0.2208468053 8.148789985e-22)
(0.1197454529 -0.3525016861 1.631605949e-21)
(0.02670545804 -0.3775497891 2.172658062e-21)
(0.2142894611 0.134744735 9.864960458e-22)
(0.2776311632 0.09870505421 0)
(0.4316592789 0.05810415703 -2.594294743e-22)
(0.5304749553 0.038462647 -1.741641796e-22)
(0.6016965375 0.02623417999 0)
(0.6571197863 0.01831922038 -6.008963498e-23)
(0.7015211827 0.01313599601 6.377864481e-23)
(0.7376040214 0.009542119379 -1.800119569e-23)
(0.7669365864 0.006804464215 2.885918193e-23)
(0.7902104137 0.004464752112 2.314994543e-23)
(0.8074552713 0.002221334139 0)
(0.8182619488 -0.0001500568897 -2.872995669e-23)
(0.8216498383 -0.002723829209 0)
(0.816239342 -0.005712654223 2.738089128e-23)
(0.7991332813 -0.009611374301 1.421636394e-23)
(0.7679986305 -0.01500254873 -5.799457372e-23)
(0.710655583 -0.02502520327 -2.535676443e-22)
(0.6235184028 -0.04204285849 -6.918122524e-22)
(0.4230091013 -0.0918296854 0)
(0.2705674675 -0.1524021862 -2.119485874e-21)
)


// ************************************************************************* //
