/*--------------------------------*- C++ -*----------------------------------*\
  =========                 |
  \\      /  F ield         | OpenFOAM: The Open Source CFD Toolbox
   \\    /   O peration     | Website:  https://openfoam.org
    \\  /    A nd           | Version:  13
     \\/     M anipulation  |
\*---------------------------------------------------------------------------*/
FoamFile
{
    format      ascii;
    class       scalarField;
    location    "0.75";
    object      p_all;
}
// * * * * * * * * * * * * * * * * * * * * * * * * * * * * * * * * * * * * * //


400
(
4.1400382e-09
-0.0001803813674
-9.005582834e-05
0.0002637048777
0.0008083686452
0.001495931482
0.002290763595
0.003166993733
0.004104143493
0.005084041663
0.006087927479
0.007099192545
0.008095849977
0.009054291612
0.009945392946
0.01073148162
0.01136253932
0.0117753159
0.01188637806
0.01169051587
0.0002084150496
1.080401134e-05
5.075008016e-05
0.0003549859397
0.0008501049454
0.001499623086
0.002271919457
0.003140262544
0.004081126081
0.005072452445
0.006092767588
0.007117710213
0.0081226551
0.009078629919
0.009951807655
0.01070191026
0.01128168032
0.01163983628
0.01169334012
0.01147477827
0.0001007422664
-7.641331195e-05
-4.603023259e-05
0.000244769437
0.0007253162423
0.001367558951
0.002143145795
0.003025934785
0.003991244751
0.005014829741
0.006071890241
0.007135926169
0.008177813803
0.009164699056
0.01005901493
0.01081782306
0.01139376
0.01174121255
0.01177960464
0.01157472017
-0.0003532052356
-0.0004949415461
-0.0004490732829
-0.0001403000968
0.0003597918974
0.001028980382
0.001842112493
0.002774464613
0.003801066428
0.004896098501
0.006032105294
0.007179250478
0.008304273356
0.009369820549
0.01033373299
0.0111491475
0.01176640314
0.01214155967
0.01219226836
0.0120101802
-0.001144271546
-0.001239538709
-0.001161953747
-0.0008101532073
-0.0002609448305
0.0004673243402
0.001352028387
0.002369965369
0.003496315581
0.004704126387
0.005963530615
0.007241415945
0.00849980003
0.009695801376
0.01078093379
0.01170182948
0.01240316045
0.01283876931
0.01291928873
0.01276580376
-0.002283344809
-0.002336700603
-0.002219459736
-0.001804616275
-0.001179287175
-0.0003600092578
0.0006322251109
0.001775604698
0.003045694779
0.004414699928
0.005850444325
0.007316378974
0.008768865736
0.01015785846
0.01142582915
0.01250898836
0.01334142385
0.01386948873
0.01398953661
0.01385359997
-0.003801749571
-0.003826396928
-0.003666706378
-0.003172405834
-0.002446096118
-0.001504469639
-0.0003677181407
0.0009436370646
0.002405827941
0.003990605569
0.005663657193
0.00738519699
0.009104722614
0.01076305139
0.01228997556
0.01360575901
0.01462677881
0.01528433497
0.01545069132
0.01531024776
-0.005753710502
-0.005766988033
-0.005565068934
-0.00497698007
-0.004126324197
-0.003031682239
-0.001713002947
-0.0001893408001
0.001516785704
0.003377401028
0.005356445442
0.007412575176
0.009486683605
0.01150872887
0.0133914897
0.01503183244
0.01631804839
0.01715491538
0.01737553816
0.01720034312
-0.008217321696
-0.008238951152
-0.00799654452
-0.007300546523
-0.006302644465
-0.005024851016
-0.003487043011
-0.001706158569
0.0002976524656
0.0024979245
0.004856833611
0.00733906109
0.009871663917
0.01237432076
0.01473861084
0.0168285112
0.01848914574
0.01958049525
0.0198700093
0.01962126663
-0.01129865182
-0.01134976616
-0.0110687587
-0.01024854819
-0.009079521861
-0.007588616602
-0.005795399737
-0.003713460332
-0.001358648993
0.001247669459
0.004076213006
0.007071972387
0.01018073939
0.01330666264
0.01631633284
0.01902998363
0.02122836367
0.02269687688
0.02308729866
0.02271717726
-0.01514173476
-0.01524216821
-0.01492202234
-0.01395506447
-0.01258746442
-0.0108525668
-0.008769050148
-0.006345638686
-0.003591957772
-0.0005223375482
0.002841666245
0.006459478712
0.01027633472
0.01419423748
0.01805973625
0.02164170897
0.02462993697
0.02668752691
0.02725395313
0.02671209094
-0.01994891505
-0.02010839938
-0.01973992146
-0.01858967813
-0.01698739931
-0.01497373345
-0.0125653664
-0.009764447972
-0.006572183536
-0.002991964852
0.0009690971186
0.005291016291
0.009937794904
0.01482743465
0.0198043944
0.02459194387
0.02876471921
0.03179234692
0.03271700671
0.031985152
-0.02602131426
-0.02621425236
-0.02576443163
-0.02436528264
-0.02247387909
-0.02013608668
-0.01736437944
-0.01415317734
-0.01049478034
-0.006379553912
-0.001794227726
0.003272650116
0.008827897871
0.01484057004
0.02120059528
0.02763075276
0.03359853843
0.03829404864
0.04002068322
0.0392383393
-0.03384254776
-0.03394123976
-0.03331833676
-0.03154670013
-0.02927514609
-0.02654311143
-0.02335397273
-0.01969475169
-0.01555229929
-0.01090688353
-0.005724017363
4.952646961e-05
0.006486852852
0.01365952936
0.02159601343
0.0301489943
0.03879729092
0.04641772813
0.0499935758
0.04984035175
-0.0442509873
-0.04384223757
-0.04281345046
-0.04043495612
-0.03762554728
-0.0343793939
-0.03067934941
-0.02650778111
-0.02185600734
-0.01670562535
-0.01101074559
-0.004678724662
0.002435163887
0.01055887996
0.01999226708
0.030982666
0.04339571195
0.05604743271
0.06379377481
0.06646744183
-0.0588754318
-0.05679576691
-0.0547948333
-0.05134747832
-0.04770137978
-0.0437101059
-0.03931300885
-0.03449173298
-0.02925679856
-0.02360922799
-0.01751285052
-0.01086209219
-0.003442342936
0.005094118746
0.01546961356
0.02869901135
0.0458013324
0.06655367617
0.0830762902
0.09412165076
-0.08071581197
-0.07370389576
-0.06943168811
-0.06407554864
-0.05909834831
-0.05399044711
-0.04860174818
-0.04291128901
-0.03695751971
-0.03077035839
-0.02433860465
-0.01756558091
-0.01016627964
-0.001840427119
0.008715517831
0.02358589738
0.04574594457
0.07821828913
0.1107523401
0.1406852138
-0.1182332676
-0.09647038722
-0.08692561341
-0.07772055697
-0.07032832822
-0.06343819708
-0.0566574889
-0.04987943119
-0.04311319426
-0.03636392797
-0.02961050825
-0.02276029378
-0.01558698518
-0.007157436683
0.003810764847
0.02077899648
0.04832391723
0.09598054669
0.1524620214
0.219482115
-0.1826696
-0.1168187649
-0.09875296041
-0.08316107563
-0.07331501468
-0.06547068375
-0.05829660441
-0.051365439
-0.04455319647
-0.03781326894
-0.03108072061
-0.02419229201
-0.01670095404
-0.0075169237
0.005358336215
0.02659191101
0.06377878849
0.1302464941
0.2228240442
0.381134201
-0.4126341351
-0.1564835245
-0.1010402085
-0.07908182875
-0.0666602977
-0.05885861202
-0.05272227829
-0.04692776419
-0.0410952401
-0.03511075203
-0.02885963303
-0.02207930339
-0.01420378947
-0.003794549338
0.01219816418
0.04056825936
0.09257298304
0.1958714859
0.3668686414
0.723160158
)


// ************************************************************************* //
