/*--------------------------------*- C++ -*----------------------------------*\
  =========                 |
  \\      /  F ield         | OpenFOAM: The Open Source CFD Toolbox
   \\    /   O peration     | Website:  https://openfoam.org
    \\  /    A nd           | Version:  13
     \\/     M anipulation  |
\*---------------------------------------------------------------------------*/
FoamFile
{
    format      ascii;
    class       vectorField;
    location    "29.52";
    object      U_all;
}
// * * * * * * * * * * * * * * * * * * * * * * * * * * * * * * * * * * * * * //


400
(
(1.095188762e-05 -3.786770553e-05 0)
(-0.0006661505785 0.0004130339041 -1.547818717e-23)
(-0.002185380384 0.0009203866499 0)
(-0.004047817553 0.001312771541 0)
(-0.005971835539 0.001535056653 6.840397578e-25)
(-0.007762735465 0.001569839362 4.151712937e-24)
(-0.009284484939 0.001423554922 -7.357465123e-24)
(-0.01043587301 0.001119714225 7.547025757e-24)
(-0.0111367442 0.0006960748089 -2.096622611e-25)
(-0.0113270459 0.0002030737451 -3.996542445e-24)
(-0.01097171602 -0.0003002320343 5.805633394e-24)
(-0.01007228258 -0.000747510398 -5.931205501e-23)
(-0.008679847093 -0.001075554868 -6.554364807e-23)
(-0.00690283289 -0.001233037589 -7.7860697e-23)
(-0.004910730983 -0.001192634663 4.574668177e-24)
(-0.002927236853 -0.0009619199815 -4.139034642e-24)
(-0.001205313184 -0.0005912140437 -1.999477624e-22)
(-1.90853623e-05 -0.000169886918 0)
(0.0005181408341 0.0001720812653 1.512718766e-25)
(0.0002227472242 0.0003059765564 -2.593437391e-24)
(-0.000263387563 0.0008289144376 1.385742533e-25)
(-0.002703316718 0.003383796674 1.557555384e-23)
(-0.00690724481 0.005604445534 1.549893335e-25)
(-0.01195224137 0.007008145578 -8.485009651e-25)
(-0.01713492236 0.007553715418 1.16060512e-24)
(-0.02197519605 0.007294147124 1.305234517e-23)
(-0.02611057413 0.006321853309 1.404657801e-24)
(-0.02926544058 0.004754165317 -7.298320128e-24)
(-0.03122651399 0.002737138429 1.016067634e-23)
(-0.03184179775 0.0004524087693 4.512185911e-24)
(-0.03102742051 -0.001884124239 -6.321078723e-24)
(-0.02879300226 -0.004022994399 2.961478277e-24)
(-0.02527125654 -0.005708310714 3.896414242e-23)
(-0.02073186071 -0.006707365012 -1.955314625e-24)
(-0.01558957504 -0.006854102752 3.75559218e-24)
(-0.01038511419 -0.006097439745 -9.744745559e-23)
(-0.005730275753 -0.004546177195 9.641468467e-23)
(-0.002233382184 -0.002507423286 -3.967394184e-25)
(-0.0001817896487 -0.000502384687 4.067452589e-25)
(8.343164375e-05 0.0006099170457 0)
(-0.0004188263554 0.002935040804 -2.913121682e-25)
(-0.004647854793 0.008803930365 1.705615905e-23)
(-0.0113718837 0.01324030465 -8.24965284e-24)
(-0.01932714499 0.01579190369 -2.070059816e-25)
(-0.02747390128 0.01652986174 2.03361764e-25)
(-0.03511751215 0.01564429348 7.330388388e-27)
(-0.04171312647 0.01335988178 -1.236658172e-24)
(-0.04683536661 0.009919714203 -4.561589353e-25)
(-0.05014952704 0.005602416462 -1.06392808e-23)
(-0.05141196226 0.0007444425506 0)
(-0.05047759914 -0.004241724538 0)
(-0.04733676932 -0.008887103856 2.671884593e-23)
(-0.04215903726 -0.01268166859 2.81385047e-23)
(-0.03531419048 -0.01513594565 -1.64671416e-24)
(-0.02738983722 -0.01586179826 4.847722119e-23)
(-0.0191699864 -0.01467326626 9.4229348e-23)
(-0.01156087707 -0.01169355905 3.979417565e-23)
(-0.005465408517 -0.007450730135 4.15414644e-25)
(-0.001451106395 -0.002936053947 1.067420638e-25)
(-9.07292806e-05 0.0002258635171 0)
(-0.0005024609622 0.00604529041 -4.252334983e-23)
(-0.006402693143 0.01637060539 -1.695833825e-23)
(-0.01553490276 0.02355912768 8.176515956e-24)
(-0.02627890956 0.02744139221 0)
(-0.03728716598 0.02832078941 0)
(-0.04768999194 0.02658751853 0)
(-0.05679618361 0.02263104249 -4.519461501e-26)
(-0.06405335215 0.01683599319 -2.127768864e-24)
(-0.0690103091 0.0096221531 0)
(-0.07130777901 0.001491088346 1.637553461e-24)
(-0.07070806333 -0.006936404572 2.804112875e-25)
(-0.06712996843 -0.01493004074 -2.811964326e-25)
(-0.06069869164 -0.02166710271 0)
(-0.05180721253 -0.02631586775 4.135087015e-23)
(-0.04114970011 -0.02816052985 -4.683379999e-23)
(-0.02971955942 -0.02677357526 -2.763860586e-23)
(-0.01873708795 -0.0222152057 -3.964622734e-23)
(-0.009487996558 -0.0152191754 7.795791776e-25)
(-0.002976875218 -0.007298191897 9.78627333e-23)
(-0.000231880243 -0.0008661816497 0)
(-0.0005316085421 0.01009492474 4.273016663e-23)
(-0.007983526875 0.02595196279 4.77983036e-25)
(-0.01939671533 0.03642851007 -4.670660598e-25)
(-0.03282355835 0.04185485528 0)
(-0.04664651763 0.0428945093 7.777497082e-25)
(-0.05985182812 0.0402004395 -7.669659255e-25)
(-0.07163236694 0.03434718371 3.670586561e-23)
(-0.0813269112 0.0258564945 1.846447646e-23)
(-0.08836538221 0.01527293463 6.234184784e-24)
(-0.09225406724 0.003246197331 -1.639461233e-24)
(-0.09260319577 -0.009407690219 0)
(-0.08917500146 -0.02167456264 4.373412503e-25)
(-0.08195930594 -0.03236718149 1.009957326e-23)
(-0.07126844922 -0.04021220988 -4.35123502e-23)
(-0.05781987364 -0.04402018105 1.934060339e-24)
(-0.04278560814 -0.04294805109 4.221045571e-23)
(-0.02775436803 -0.03683329112 -3.847774397e-25)
(-0.01455055738 -0.02652710797 0)
(-0.004859442954 -0.01408451282 5.436515226e-23)
(-0.000364146716 -0.002846960434 -2.56465347e-22)
(-0.0005272171004 0.01499914719 9.837916718e-23)
(-0.009377850601 0.03738989867 -4.904964789e-25)
(-0.0228816464 0.0517017906 0)
(-0.03883013409 0.05894134824 0)
(-0.0553861491 0.0602552783 -8.730350967e-23)
(-0.07142824215 0.0566186029 -8.497363806e-23)
(-0.08606592921 0.04880137315 -4.065675035e-23)
(-0.09855018342 0.03743960604 -1.503514272e-23)
(-0.1081938175 0.0231597685 -5.364768754e-24)
(-0.1143437507 0.006709738601 -8.172675403e-24)
(-0.1164039179 -0.0109327395 6.598641537e-24)
(-0.1138930817 -0.02848916401 8.822110612e-24)
(-0.1065481063 -0.04437009959 -1.89228798e-23)
(-0.09446753419 -0.05675293395 4.588217671e-24)
(-0.07826816241 -0.06378258321 0)
(-0.05922865541 -0.06393459286 -1.574854895e-23)
(-0.03933962592 -0.05653788001 -2.366959783e-26)
(-0.02114178675 -0.04235790991 0)
(-0.007318668171 -0.02398221504 -1.520230057e-22)
(-0.0005216129891 -0.005925538763 6.055410661e-22)
(-0.0004990797141 0.02064557167 -9.770903266e-23)
(-0.01052943515 0.05045396179 2.831611685e-22)
(-0.02582939115 0.06912455483 1.526676536e-22)
(-0.044021076 0.07849196429 3.618715501e-24)
(-0.06310696285 0.08029416946 -7.319230918e-23)
(-0.08190351172 0.07587991065 9.041706462e-23)
(-0.09947700546 0.0662165052 -3.589651284e-24)
(-0.1150220365 0.05201669235 -1.728878979e-24)
(-0.1277511724 0.03392348451 2.523724042e-24)
(-0.1368464971 0.01270239247 7.38045443e-24)
(-0.1414702988 -0.01058760977 -6.498529611e-24)
(-0.1408241001 -0.03445989659 -9.783081145e-24)
(-0.1342739381 -0.05692726603 -3.261779457e-23)
(-0.1215444463 -0.07553264686 -3.658411098e-23)
(-0.1029667881 -0.08754207395 5.639711835e-25)
(-0.07976333539 -0.09039160111 0)
(-0.05426658 -0.08244472864 0)
(-0.02987147459 -0.06397708516 -2.905407271e-24)
(-0.0106628023 -0.03798780313 2.969841921e-24)
(-0.0007350887816 -0.01050086745 1.027863324e-22)
(-0.0004479153065 0.02687229452 0)
(-0.01134916536 0.06480706267 2.001963923e-22)
(-0.0280158311 0.08829549335 8.962054839e-23)
(-0.04799829242 0.1001227561 0)
(-0.06920562359 0.1027069423 1.56970151e-22)
(-0.09044323015 0.09781516364 0)
(-0.1107825773 0.08661054481 -1.428284561e-22)
(-0.1294087169 0.06983918555 6.514962943e-24)
(-0.145476458 0.04808218761 0)
(-0.1580344529 0.02201760856 0)
(-0.1660126177 -0.007334207859 -1.374253316e-24)
(-0.168266451 -0.03838800501 -9.315179181e-25)
(-0.1637058096 -0.06883923574 1.491771452e-22)
(-0.1515202822 -0.09558214474 -4.704642549e-23)
(-0.1315129488 -0.1148292142 -2.560324918e-24)
(-0.1045592073 -0.1225697107 1.534083357e-24)
(-0.07309321784 -0.1155512517 -1.55828242e-24)
(-0.04135005307 -0.09283075395 0)
(-0.01525224061 -0.05740745165 3.203466512e-24)
(-0.001044303094 -0.01714708836 -1.012824701e-21)
(-0.0003744669911 0.03346279411 0)
(-0.01175001003 0.07998859661 -1.128109656e-22)
(-0.02920695023 0.1086383154 -6.190766778e-22)
(-0.05031722677 0.1232225549 -3.755111574e-22)
(-0.07296285451 0.1269088902 0)
(-0.09598919267 0.1219248537 4.119247739e-22)
(-0.1185268633 0.1096343078 1.260833335e-22)
(-0.1398140984 0.09078208859 -5.581509135e-24)
(-0.1590215715 0.0658137647 5.553883664e-24)
(-0.1751454953 0.03520885055 0)
(-0.1869553886 -0.0001965095025 2.911990487e-23)
(-0.1930166658 -0.03889712612 4.695500466e-24)
(-0.1917804183 -0.07843831709 -1.076699911e-22)
(-0.1817869122 -0.115185857 8.003154691e-23)
(-0.162056572 -0.1442592024 -2.419524496e-22)
(-0.1327058094 -0.1598541173 0)
(-0.09577859202 -0.1563106148 0)
(-0.05601615408 -0.1302975832 0)
(-0.02147851923 -0.08381103474 0)
(-0.001500377689 -0.02665507064 5.571667754e-22)
(-0.0002873931924 0.0401605057 0)
(-0.0116935706 0.09543547261 -3.492824846e-22)
(-0.02924430826 0.1294065135 8.932400942e-22)
(-0.05060933525 0.1469289965 3.616990119e-22)
(-0.07370062237 0.151973982 0)
(-0.09745124506 0.1472750243 -3.862358367e-22)
(-0.1211066655 0.1344185905 -3.174296157e-23)
(-0.1440321219 0.1141389279 3.332988008e-22)
(-0.1655139422 0.08669987807 1.76941466e-22)
(-0.1846244584 0.05229126379 -4.060021023e-23)
(-0.200132184 0.0114173971 1.656811347e-23)
(-0.2104618499 -0.03471381984 -8.264884724e-24)
(-0.2137204652 -0.08376505507 3.371734697e-22)
(-0.2078211735 -0.131874928 0)
(-0.1908234979 -0.1732748234 2.420693415e-22)
(-0.1616332556 -0.2002585211 5.774084927e-24)
(-0.1211660124 -0.2040113981 -5.860193613e-24)
(-0.07384972723 -0.1772113594 1.548216697e-22)
(-0.02971779176 -0.1188638228 -5.434752695e-24)
(-0.002179537457 -0.04005385429 0)
(-0.0002117261868 0.04671612334 0)
(-0.01125001604 0.1105491516 0)
(-0.028156238 0.1497346204 -5.022559968e-22)
(-0.04874476334 0.1701508038 -1.88093341e-23)
(-0.07100080875 0.176624795 2.038310974e-23)
(-0.09399443101 0.1724518525 -2.01424427e-23)
(-0.1171433263 0.1594864775 -2.316811326e-23)
(-0.1400178361 0.1384800969 -3.029716887e-22)
(-0.1621327726 0.1095158823 6.698583161e-23)
(-0.1827957907 0.07245189866 4.513028872e-23)
(-0.2009834469 0.02734952005 -4.57757002e-23)
(-0.2152269176 -0.02508656641 0)
(-0.223556104 -0.08298295091 -7.839111025e-23)
(-0.2234630845 -0.1427250471 0)
(-0.2120677854 -0.1981813102 -3.739433963e-22)
(-0.1867432803 -0.2400765412 5.244710751e-22)
(-0.1464436594 -0.2560765246 0)
(-0.09394554204 -0.2331202389 -1.493769901e-22)
(-0.04021993865 -0.1639608748 1.937318657e-22)
(-0.003201092177 -0.05861045657 -3.411298823e-22)
(-0.0002015495274 0.05297558639 0)
(-0.01067265652 0.1248165961 9.182641712e-22)
(-0.02628453493 0.1687415926 -2.440618357e-23)
(-0.04501116819 0.1916445673 9.193115157e-22)
(-0.06494608057 0.1992911949 -2.512019167e-23)
(-0.08536640448 0.1956096458 2.838772199e-23)
(-0.1059306995 0.1827880812 -2.812858916e-23)
(-0.1264925727 0.161657962 -1.660879372e-23)
(-0.1468998606 0.1321760631 -5.260110586e-22)
(-0.1668460123 0.09389651103 -8.906430821e-24)
(-0.1857305127 0.04640599586 9.65999438e-24)
(-0.2024783809 -0.01023745656 3.31301926e-22)
(-0.2154156563 -0.0749976828 -5.820617617e-22)
(-0.2220211259 -0.1450305596 0)
(-0.2188033049 -0.2146753545 8.887080936e-22)
(-0.2016257777 -0.2740008746 -4.940658084e-22)
(-0.166863884 -0.3075804077 -1.572148978e-23)
(-0.114021944 -0.2953804623 0)
(-0.05288476796 -0.2195797153 -1.889956243e-22)
(-0.004749180467 -0.08377256792 3.360360587e-22)
(-0.000364208523 0.05902294316 1.550975308e-23)
(-0.01049580784 0.137987563 -8.763979954e-22)
(-0.02441403654 0.1856796048 -1.157035732e-21)
(-0.04026745323 0.2101375852 -8.628777746e-22)
(-0.05630756403 0.2182340337 0)
(-0.0721488854 0.214618292 3.513732518e-23)
(-0.08779258327 0.2018786425 -7.294719009e-23)
(-0.1034566901 0.1810002202 5.867770764e-23)
(-0.1193988379 0.1518995991 3.021305817e-22)
(-0.1357936371 0.1139151309 -1.128175839e-23)
(-0.1526087341 0.06621449159 0)
(-0.1694526397 0.008177575941 -3.603865233e-22)
(-0.185276538 -0.06015940746 7.515550474e-22)
(-0.1980452788 -0.1372741614 8.83157534e-22)
(-0.2043549721 -0.2189255921 -5.296505549e-22)
(-0.1990980018 -0.295970643 5.162574749e-22)
(-0.1760606609 -0.3514065718 1.078162106e-23)
(-0.1300890957 -0.3584144036 -1.095476009e-23)
(-0.06688801572 -0.2843271047 -8.21752801e-23)
(-0.007083314157 -0.1169962063 0)
(-0.0009095883045 0.0654002276 -1.911451276e-23)
(-0.01167601129 0.1502811441 -1.326943271e-21)
(-0.02388902507 0.2000652534 1.094215512e-21)
(-0.03601371809 0.2244209071 6.73481423e-22)
(-0.04657349943 0.231658059 6.014528983e-22)
(-0.05577088144 0.227238717 6.643844932e-22)
(-0.06411302411 0.2141770066 -4.458602935e-23)
(-0.07227624051 0.1936491589 -3.461285011e-22)
(-0.0809703978 0.1656027545 2.152131886e-22)
(-0.09087262028 0.1292708404 0)
(-0.1025554547 0.08353107621 0)
(-0.1163629178 0.02720046294 2.655366636e-22)
(-0.1321596285 -0.0406196414 8.194361183e-23)
(-0.1489258486 -0.120012379 -2.821566202e-22)
(-0.1641289589 -0.2089295958 -5.411198642e-23)
(-0.1727881762 -0.3006987515 1.301953074e-22)
(-0.1670314075 -0.3793323742 -3.400392099e-22)
(-0.1365293809 -0.413644642 -1.594897606e-23)
(-0.08018253068 -0.3538321273 8.206297666e-23)
(-0.01050762125 -0.1594128184 -6.032364072e-22)
(-0.002260509139 0.07348870615 0)
(-0.01580366799 0.1626517981 2.145840699e-21)
(-0.02665067553 0.2117899094 0)
(-0.03422378828 0.233394074 -1.35178637e-21)
(-0.03759450629 0.2377760399 6.184085241e-23)
(-0.03799748224 0.2312548025 -6.192989563e-22)
(-0.03668337141 0.2171894999 -4.756213839e-22)
(-0.03489113524 0.1968932314 8.30113419e-22)
(-0.03378918782 0.1703341992 -1.885671154e-22)
(-0.03449958559 0.1367222288 0)
(-0.03811654106 0.0947969829 0)
(-0.04565071259 0.04304319492 2.410634131e-23)
(-0.05790879019 -0.02013744288 -6.007132756e-22)
(-0.07514667385 -0.09620612885 -4.309517188e-22)
(-0.09645235789 -0.1855552553 4.637812738e-22)
(-0.1183467625 -0.2853564216 -6.488621637e-22)
(-0.1332719086 -0.383838281 9.119779753e-23)
(-0.1265353173 -0.4504354773 2.938444629e-23)
(-0.08899161626 -0.4198532494 5.660535353e-22)
(-0.01526918357 -0.211171758 6.020996429e-22)
(-0.005180908912 0.085980395 0)
(-0.0252556216 0.1766288735 1.465582112e-22)
(-0.03483434498 0.2205957519 -4.917077491e-23)
(-0.03640056458 0.2354854426 7.642816986e-22)
(-0.03018540435 0.2343401759 -7.005270765e-22)
(-0.01916649128 0.2241599539 4.746412392e-23)
(-0.005615929749 0.2083522669 -1.018598495e-22)
(0.008568773774 0.1881239363 -3.389841429e-22)
(0.0217979999 0.1633911035 2.062797952e-22)
(0.03262696219 0.133324384 0)
(0.03958376471 0.09664107704 0)
(0.04116936147 0.05174084531 -2.902639016e-22)
(0.03578412308 -0.003255092911 0)
(0.02198119643 -0.07058330869 -5.512138932e-22)
(-0.001265420701 -0.1525732791 -1.49233008e-23)
(-0.03310518264 -0.250594743 2.559684062e-23)
(-0.06909274481 -0.359933918 2.203046388e-22)
(-0.09227852323 -0.4575422246 4.788663798e-24)
(-0.08718100217 -0.469812686 -5.789510115e-22)
(-0.02103128222 -0.269897063 0)
(-0.01111632068 0.1085974918 0)
(-0.04248911239 0.1947150515 -8.848375598e-22)
(-0.04795552116 0.2258193104 -5.410982933e-22)
(-0.03919574726 0.2282132302 4.543762248e-22)
(-0.01877883993 0.2182324641 -1.709995467e-24)
(0.007663651787 0.2028217187 -4.560987115e-23)
(0.03667918401 0.1847617387 5.696602292e-22)
(0.06582918405 0.1647116818 -2.766855987e-23)
(0.09327049067 0.1423127909 -2.069756662e-22)
(0.1173883617 0.116627571 3.14217913e-23)
(0.1365454144 0.08641159922 -3.425883332e-23)
(0.1489662341 0.05017690477 -3.690561931e-23)
(0.1525269605 0.006159403883 3.205605879e-22)
(0.144936165 -0.04796104257 6.119552456e-22)
(0.1235155147 -0.1153050957 -5.1011206e-22)
(0.08633495135 -0.2004194113 -1.616018114e-22)
(0.03199055793 -0.30678054 1.531346282e-22)
(-0.02362147107 -0.4239835944 7.293706061e-23)
(-0.06492422792 -0.4871611423 1.913299058e-21)
(-0.02509973041 -0.3291543676 2.954999889e-21)
(-0.0200468014 0.1460727716 -4.390175279e-23)
(-0.06416410506 0.2112955658 4.417347829e-23)
(-0.0507024428 0.2177299448 1.000178871e-21)
(-0.01934123276 0.2014678225 -8.270241268e-24)
(0.02414426001 0.1809074077 0)
(0.07154071284 0.1606931307 4.363661047e-23)
(0.1190697428 0.1416493854 -2.273820257e-22)
(0.1644760783 0.1233180784 -9.027829433e-23)
(0.2062244391 0.1048116975 3.680685439e-23)
(0.242963639 0.08507143858 -1.701637388e-23)
(0.2732201374 0.0629615723 3.4299366e-23)
(0.2952530571 0.03726307261 -6.592617904e-23)
(0.3066966236 0.006535219363 -9.303837893e-23)
(0.3049734242 -0.03087755441 1.517027805e-22)
(0.2863932934 -0.07786278821 0)
(0.247056544 -0.1399299528 1.505566358e-22)
(0.1810920093 -0.2266299368 2.560017912e-22)
(0.09604434232 -0.3443894473 0)
(-0.006697697755 -0.4552209711 -3.675646971e-21)
(-0.01922409539 -0.377753712 -2.892629081e-21)
(-0.02591950346 0.2276829129 -9.514182628e-22)
(-0.03998322781 0.223821677 -1.388967416e-22)
(0.03656135403 0.1810585177 -2.335557735e-22)
(0.1090502167 0.1451058468 -1.193729709e-22)
(0.1817189401 0.117244459 -4.29577223e-23)
(0.2490087971 0.09627898007 9.783012355e-23)
(0.3100333096 0.08002502148 -1.408568629e-22)
(0.3646205112 0.06656809741 1.297156507e-22)
(0.412624795 0.05449176743 -8.620006385e-23)
(0.4536245749 0.0427089628 1.132188726e-25)
(0.4867874449 0.03032302735 1.527725802e-23)
(0.5107447586 0.01652908184 7.997126541e-23)
(0.5236594335 0.0005365819603 -1.811106292e-22)
(0.5231795631 -0.01863366651 -1.617129922e-22)
(0.5052321665 -0.04286473617 -4.262851224e-23)
(0.4658713843 -0.07633227824 0)
(0.3952695598 -0.1286089278 -1.846500851e-22)
(0.291607037 -0.2208468067 8.148786959e-22)
(0.1197454695 -0.3525016873 1.631605443e-21)
(0.02670546224 -0.3775497917 2.172657818e-21)
(0.2142894583 0.1347447306 9.864965112e-22)
(0.2776311524 0.09870504971 0)
(0.4316592645 0.0581041541 -2.594299104e-22)
(0.5304749481 0.03846264763 -1.741645675e-22)
(0.6016965475 0.0262341832 0)
(0.657119818 0.01831922457 -6.008983312e-23)
(0.7015212348 0.01313599964 6.377886804e-23)
(0.7376040886 0.009542121365 -1.800126003e-23)
(0.7669366612 0.006804463953 2.885928028e-23)
(0.7902104881 0.004464749616 2.315001514e-23)
(0.8074553382 0.002221329874 0)
(0.8182620031 -0.0001500622649 -2.873002237e-23)
(0.821649877 -0.002723834863 0)
(0.8162393645 -0.005712658502 2.738098423e-23)
(0.799133291 -0.00961137684 1.421643811e-23)
(0.7679986316 -0.01500254945 -5.799450598e-23)
(0.7106555807 -0.02502520222 -2.535674653e-22)
(0.6235184013 -0.04204285723 -6.91812016e-22)
(0.4230091014 -0.09182968408 0)
(0.2705674679 -0.1524021856 -2.119485636e-21)
)


// ************************************************************************* //
