/*--------------------------------*- C++ -*----------------------------------*\
  =========                 |
  \\      /  F ield         | OpenFOAM: The Open Source CFD Toolbox
   \\    /   O peration     | Website:  https://openfoam.org
    \\  /    A nd           | Version:  13
     \\/     M anipulation  |
\*---------------------------------------------------------------------------*/
FoamFile
{
    format      ascii;
    class       scalarField;
    location    "6.94";
    object      p_all;
}
// * * * * * * * * * * * * * * * * * * * * * * * * * * * * * * * * * * * * * //


400
(
1.543996224e-08
-0.0004733496414
-0.0007488563897
-0.0008154121725
-0.000685698398
-0.000391004461
3.31065539e-05
0.0005528920673
0.001134680516
0.001741893567
0.00233295865
0.00286056961
0.003273713561
0.003522311655
0.003564942026
0.003379453607
0.002976050741
0.002406301493
0.001820213755
0.001276872488
0.0005086840621
5.608412418e-06
-0.000290625644
-0.0003715162325
-0.0002832303718
-5.191536351e-05
0.0002934796694
0.0007242352323
0.001210215869
0.001716878028
0.002207279706
0.002634857719
0.002952699102
0.003115838293
0.003089822053
0.002861185437
0.002447485721
0.001903252728
0.001368648736
0.0007700703296
0.0008023425072
0.0002463106762
-8.203923561e-05
-0.0001651114556
-9.485609664e-05
9.966439181e-05
0.0003936504797
0.0007644103805
0.001187669621
0.00163423359
0.00206721231
0.002443507966
0.002714871449
0.002835040453
0.002768662847
0.002501708746
0.002049972308
0.001460593893
0.0008341983013
6.720521231e-05
0.0007799868361
0.000160887899
-0.0002083398231
-0.0002925992588
-0.0002282801872
-5.062760806e-05
0.0002173812747
0.0005592711689
0.0009580110264
0.001390311913
0.001821886102
0.002207916723
0.002493712264
0.002623056883
0.002548672465
0.00224484099
0.001717115186
0.001004426943
0.000180821673
-0.0008613404505
0.0002963102911
-0.0003660695404
-0.0007585238813
-0.0008354103311
-0.0007690343832
-0.0005995487049
-0.0003467529541
-1.847906721e-05
0.0003786580554
0.0008303664245
0.001306980571
0.001762301314
0.002131355723
0.002340087537
0.002317346273
0.002011721568
0.001406780704
0.0005293915767
-0.0005662071225
-0.001957051119
-0.0007766147914
-0.001457930836
-0.001858698118
-0.001925078473
-0.001859931245
-0.001706100991
-0.001477247261
-0.001168408546
-0.0007702992478
-0.0002817190507
0.0002783650677
0.0008669940146
0.001408180829
0.001802676509
0.001939908201
0.001721115557
0.001085801579
3.542807199e-05
-0.00140006265
-0.003237300294
-0.002558856277
-0.003234514201
-0.003638034646
-0.00370386519
-0.003663361553
-0.003559902001
-0.003397346329
-0.003152221607
-0.00279086015
-0.002285219411
-0.001630564516
-0.0008530400399
-3.342471557e-05
0.0007006221385
0.001180527055
0.001226553229
0.0006933566804
-0.0004771716702
-0.002303596585
-0.004702531134
-0.005155301242
-0.005806179139
-0.006216549073
-0.006309600359
-0.00634405365
-0.006362666685
-0.006356419986
-0.006277083172
-0.006055643698
-0.005620327695
-0.004919448094
-0.003935326728
-0.002733376386
-0.001460721217
-0.0003594045888
0.0002639382193
0.0001096732948
-0.001011802739
-0.003230441392
-0.006313758515
-0.008646253248
-0.00925750546
-0.00968704706
-0.009851191114
-0.01003684201
-0.01028766218
-0.01058114405
-0.01083962096
-0.01094732105
-0.01076677307
-0.01016058435
-0.009046181886
-0.007408506987
-0.005385221431
-0.003289879803
-0.001604200326
-0.0008845533993
-0.001582622835
-0.004076313541
-0.007939682972
-0.01307369723
-0.01363208866
-0.01409414748
-0.014376602
-0.0148005321
-0.01541676474
-0.01619338126
-0.01702297949
-0.01773473166
-0.01810583853
-0.0178841248
-0.0168374515
-0.0148262281
-0.01189968265
-0.008397540106
-0.00499744207
-0.002631044229
-0.002215796583
-0.004635940371
-0.009274837014
-0.01843380355
-0.01892237272
-0.01941593578
-0.01983960179
-0.02056536386
-0.02166407872
-0.02310437973
-0.02475495086
-0.02638872619
-0.02768378472
-0.02823881899
-0.0276205086
-0.02548067741
-0.02166068156
-0.01642062456
-0.0105822212
-0.005533466525
-0.002911445111
-0.004531404117
-0.009705292775
-0.02468648878
-0.02507292804
-0.02555686646
-0.02607609237
-0.02709031943
-0.02871123858
-0.03092311417
-0.03358142316
-0.03640912022
-0.03898337896
-0.04073834909
-0.04100476005
-0.03913466596
-0.03465525327
-0.02757426964
-0.01869316209
-0.009813032847
-0.003499247914
-0.003086076057
-0.008097026233
-0.03179647911
-0.03200444392
-0.03235717424
-0.03279797012
-0.03394668302
-0.03598453966
-0.03892755366
-0.04262752398
-0.04676539404
-0.05082443229
-0.05407912129
-0.05562348223
-0.05444956643
-0.04970100864
-0.04095801335
-0.02874118972
-0.0150301046
-0.003317624329
0.0008998414822
-0.002497703428
-0.03983197619
-0.0396684862
-0.03962509355
-0.03961398409
-0.04054615694
-0.04270508722
-0.04614755854
-0.05071990787
-0.05605958103
-0.06155993542
-0.06634693301
-0.06928697795
-0.06905758458
-0.06435881767
-0.05424935961
-0.03871396706
-0.0195245349
-0.0007446920322
0.009512056382
0.01020402083
-0.0491608008
-0.04811694325
-0.0471531986
-0.0460390794
-0.04618464604
-0.04799195242
-0.05154336343
-0.05665232655
-0.06289033673
-0.06954505401
-0.07559609586
-0.07970007427
-0.08025543862
-0.07554338855
-0.0641138586
-0.04525465216
-0.02018050255
0.007212034192
0.02619199432
0.03467672377
-0.06093478186
-0.05770680111
-0.05482744169
-0.05159459512
-0.05018337059
-0.05106216779
-0.05427130584
-0.05952233953
-0.06627982414
-0.07366237607
-0.08049156149
-0.08520585978
-0.08594176782
-0.08058765123
-0.06733535628
-0.04459647843
-0.0129929082
0.02505421578
0.05611962928
0.07768209085
-0.07781610236
-0.06897014026
-0.06232714552
-0.05558068334
-0.05179737829
-0.05125539964
-0.05379490408
-0.05891292103
-0.06585229193
-0.07355363899
-0.08061127722
-0.08522538227
-0.08526714075
-0.07826127678
-0.06187215064
-0.03403845225
0.005345025382
0.0580635878
0.1054670904
0.1475978567
-0.1086710194
-0.08430034423
-0.07045235922
-0.05809660756
-0.05099195858
-0.04860316103
-0.05025934561
-0.05507035272
-0.06196392529
-0.0696196547
-0.07639030279
-0.08023059908
-0.07877209636
-0.06897149062
-0.04815067604
-0.01331210689
0.03725096656
0.1059933653
0.1769605843
0.2554015339
-0.1671035801
-0.09880672023
-0.07438938901
-0.05446834775
-0.04424178558
-0.04082097164
-0.0423562154
-0.04738911824
-0.0545272708
-0.06223996712
-0.06871281035
-0.07173219854
-0.06854900969
-0.05623306773
-0.03105581107
0.01122608166
0.07445279965
0.1650584827
0.2748222005
0.4364356796
-0.3971257361
-0.1371122042
-0.07449417925
-0.04695523426
-0.0334005992
-0.02951925999
-0.03171275163
-0.03754896594
-0.04532829826
-0.05342696462
-0.06000500277
-0.06285322511
-0.05937772181
-0.04609458709
-0.01863831682
0.02940278523
0.1059690243
0.2322142192
0.4186341368
0.7788217143
)


// ************************************************************************* //
