/*--------------------------------*- C++ -*----------------------------------*\
  =========                 |
  \\      /  F ield         | OpenFOAM: The Open Source CFD Toolbox
   \\    /   O peration     | Website:  https://openfoam.org
    \\  /    A nd           | Version:  13
     \\/     M anipulation  |
\*---------------------------------------------------------------------------*/
FoamFile
{
    format      ascii;
    class       scalarField;
    location    "15";
    object      p_all;
}
// * * * * * * * * * * * * * * * * * * * * * * * * * * * * * * * * * * * * * //


400
(
-7.882785069e-07
-0.0005463063046
-0.0008863319578
-0.001011873524
-0.0009313912464
-0.0006772177458
-0.0002868645836
0.0002037579385
0.0007582204565
0.001336179277
0.001892132365
0.002373417602
0.002724785113
0.002893246922
0.002837280903
0.002538758303
0.002017797154
0.001331321852
0.0006750220209
8.090590536e-05
0.0005835615859
4.911515708e-06
-0.0003565619149
-0.0004968273577
-0.0004642464647
-0.0002853677569
1.042963087e-05
0.0003938685315
0.0008335675181
0.00129237153
0.001730582969
0.002097170902
0.00234186831
0.002417403069
0.002289896303
0.001950428604
0.001425439183
0.0007796212308
0.0001844999286
-0.0004766434818
0.0009448028921
0.0003035714651
-9.511599588e-05
-0.0002392445283
-0.0002308862809
-0.0001000769781
0.0001290948033
0.0004352788049
0.0007947276633
0.001175764608
0.001545643383
0.001851390089
0.002042916186
0.002071577155
0.00190224594
0.001524975268
0.0009634697192
0.0002739517224
-0.0004220272883
-0.001256690081
0.0009667434367
0.0002521492511
-0.0001952073809
-0.0003450723514
-0.0003516902776
-0.0002518133793
-6.61879147e-05
0.0001924463942
0.0005103820443
0.0008670807339
0.001222255199
0.001532290462
0.001736779194
0.001775375878
0.001599291565
0.001185078952
0.0005443513564
-0.0002764253668
-0.001188663004
-0.002335747361
0.0004716469687
-0.0002901742187
-0.0007659983534
-0.0009149847365
-0.0009328026267
-0.0008606808004
-0.0007138011874
-0.0004928946479
-0.0001979462374
0.000161570411
0.0005553257946
0.0009350796041
0.001229869625
0.001359069264
0.001246473091
0.0008389676354
0.0001224287116
-0.0008712578268
-0.002077462366
-0.003601389177
-0.0006915040179
-0.00146885176
-0.001954785282
-0.002102750324
-0.002141540823
-0.002113394452
-0.002023771849
-0.001855930144
-0.001589074912
-0.001213115685
-0.0007436703703
-0.0002252209472
0.0002598750568
0.0006021849457
0.0006802155575
0.0003861786339
-0.0003453380662
-0.001512558878
-0.003078955481
-0.005080614835
-0.002659647105
-0.00341850468
-0.0039072904
-0.004069045303
-0.004161341283
-0.004224098194
-0.004248153853
-0.00419216842
-0.004004361877
-0.003641477741
-0.003089277511
-0.002373495833
-0.001579810605
-0.0008500934259
-0.0003719334204
-0.0003456003339
-0.0009336826024
-0.002202964176
-0.004170507553
-0.006759735287
-0.005541900934
-0.006254846774
-0.006750104981
-0.00695968749
-0.007166578672
-0.007406239278
-0.0076507558
-0.007826651106
-0.007838445724
-0.007590553138
-0.007013456855
-0.006084095416
-0.004869344057
-0.003533248275
-0.002345881029
-0.001649553886
-0.001779611324
-0.002950193162
-0.005299513677
-0.008586645846
-0.009408103259
-0.01005354979
-0.0105674466
-0.01087441082
-0.01128161554
-0.01182096837
-0.0124445181
-0.01304104035
-0.01345861937
-0.01352601177
-0.01308006963
-0.01201767849
-0.01032708194
-0.008161147768
-0.005868279759
-0.003981302475
-0.003115121377
-0.003769996727
-0.006350900178
-0.01040987692
-0.01427387653
-0.01483321634
-0.01537735614
-0.01583040736
-0.01652831433
-0.01750556092
-0.01869788256
-0.01995541078
-0.02106084516
-0.02174685714
-0.02172468667
-0.02073840765
-0.01864175005
-0.01549793447
-0.01168396377
-0.007938324551
-0.005271457944
-0.004678164107
-0.007099676387
-0.01189309152
-0.02009496244
-0.02054688182
-0.0211145506
-0.02172973617
-0.02277379255
-0.02429722102
-0.02622929684
-0.02838685371
-0.03048584382
-0.03215042543
-0.03293566458
-0.0323802458
-0.0301267755
-0.02603279485
-0.02039269347
-0.01408744369
-0.008590168773
-0.005636517172
-0.007133762189
-0.01237910962
-0.0267819068
-0.02709077339
-0.02762942004
-0.02834305771
-0.02969742295
-0.03178151711
-0.03453327738
-0.03774615432
-0.04107487914
-0.04403473802
-0.0460121405
-0.04630385552
-0.04429368603
-0.03950158167
-0.03197732588
-0.02257209568
-0.01315729379
-0.006391370299
-0.005722837089
-0.01068167176
-0.03424824597
-0.03433619491
-0.03470706845
-0.0353164183
-0.03679255223
-0.03929508255
-0.04278712408
-0.04704721661
-0.0516749195
-0.0560837127
-0.05950179957
-0.06101553491
-0.05961337797
-0.05450223126
-0.04530244567
-0.03257710647
-0.0183468353
-0.006154534942
-0.001593905346
-0.004800106936
-0.04251589145
-0.0421913498
-0.04210911411
-0.04220590604
-0.04341439322
-0.04600283936
-0.04996902536
-0.05507369159
-0.06085550867
-0.06662994475
-0.07147444148
-0.07425462272
-0.07368677631
-0.06854428633
-0.05795686374
-0.04196081166
-0.02235187767
-0.003180477327
0.007413055662
0.008398054659
-0.05191454936
-0.05067229164
-0.04959330198
-0.04849410671
-0.04883556162
-0.05101673024
-0.05505324675
-0.06066229776
-0.06729007032
-0.07414046865
-0.08013755131
-0.08394269831
-0.08401453276
-0.07874045337
-0.06676347951
-0.04745732982
-0.02207100738
0.005551360067
0.02475825251
0.03356111537
-0.06356481329
-0.06010621975
-0.05702160284
-0.05369209412
-0.05238977532
-0.05359363213
-0.05726015434
-0.06302492864
-0.07013561383
-0.07767140893
-0.08436978911
-0.0886783119
-0.088814227
-0.08277670062
-0.06880875145
-0.04559301856
-0.01373389352
0.02443288937
0.05555312084
0.07736414734
-0.08010719811
-0.07100467705
-0.06406136662
-0.05711254157
-0.0533772946
-0.0531509396
-0.05617833897
-0.06181743301
-0.06915049879
-0.07700568559
-0.08390806269
-0.08806372623
-0.08741312105
-0.07961836224
-0.06246599982
-0.03405560983
0.005539148798
0.05859228038
0.1058103214
0.1480530441
-0.1104463036
-0.08580301028
-0.07156821678
-0.05894174806
-0.05188368904
-0.04984105259
-0.05204278379
-0.05743069414
-0.06476809256
-0.07261270494
-0.07925052347
-0.0826405012
-0.08047315052
-0.06986406293
-0.04823434468
-0.01274422944
0.03820203619
0.1070997296
0.1779459688
0.2564425166
-0.1683932399
-0.09987230689
-0.07498818637
-0.05478711646
-0.04460646402
-0.04156000332
-0.04367341081
-0.04931781211
-0.05693858083
-0.06488594196
-0.0712808118
-0.07391249387
-0.07008139719
-0.05699362911
-0.0310333543
0.0119046104
0.07556184381
0.1663629188
0.2761198399
0.4376643414
-0.398385673
-0.1380673585
-0.07495524915
-0.04708428536
-0.03354453692
-0.03001318167
-0.03276662433
-0.03920984599
-0.04748808765
-0.05586098576
-0.06242402741
-0.06496458834
-0.06094861887
-0.04694657017
-0.01875668132
0.02991625991
0.1069232066
0.2333892402
0.4198407852
0.7799852813
)


// ************************************************************************* //
