/*--------------------------------*- C++ -*----------------------------------*\
  =========                 |
  \\      /  F ield         | OpenFOAM: The Open Source CFD Toolbox
   \\    /   O peration     | Website:  https://openfoam.org
    \\  /    A nd           | Version:  13
     \\/     M anipulation  |
\*---------------------------------------------------------------------------*/
FoamFile
{
    format      ascii;
    class       scalarField;
    location    "15";
    object      p_all;
}
// * * * * * * * * * * * * * * * * * * * * * * * * * * * * * * * * * * * * * //


400
(
4.265695265e-09
-0.0004362166126
-0.0009431560021
-0.001296645592
-0.001392752672
-0.001192054838
-0.0006813249075
0.0001377410275
0.001245898575
0.002596963536
0.004107783138
0.00565381054
0.007076569448
0.00820593253
0.008896687489
0.009071795261
0.008759173477
0.008109302873
0.007386337994
0.006898926868
0.0004392650226
-1.175195614e-05
-0.0004495292076
-0.0007214313729
-0.0007705889561
-0.0005751790721
-0.0001247027449
0.00058281449
0.001535541263
0.002698456201
0.004003768265
0.005346476602
0.006589815989
0.007585099697
0.008204380396
0.008379079611
0.008130978457
0.007581944527
0.006938493854
0.006440008711
0.0009658129152
0.0003930379442
-7.128050041e-05
-0.0003208703579
-0.0003589716874
-0.0001905778572
0.0001891885756
0.0007876381049
0.001604568648
0.002620353773
0.003783939991
0.005005393922
0.006158647346
0.007098721304
0.007693897466
0.007865404488
0.007619109598
0.007051906469
0.00633104875
0.005678453587
0.001317288009
0.0005757377791
1.98179332e-05
-0.0002643853425
-0.0003325562423
-0.0002165455353
8.305987704e-05
0.0005809928426
0.001292212186
0.002215916868
0.003318920089
0.004522923518
0.005702299028
0.006698500337
0.007353443922
0.007555173798
0.00727808294
0.006595878003
0.005667577592
0.004754503002
0.001298306234
0.0003811603896
-0.0002898590459
-0.0006411595276
-0.0007721267516
-0.0007364892897
-0.0005365922276
-0.0001464553113
0.0004684612496
0.001330976852
0.002429926777
0.003700255674
0.005013231231
0.006185495298
0.007012845645
0.00732475348
0.007041059563
0.006204190918
0.004985519603
0.003727574059
0.0007512990355
-0.0003306514905
-0.001121978581
-0.001560430613
-0.00178382204
-0.001862796044
-0.001797118759
-0.001545059529
-0.001046785984
-0.0002481686606
0.0008711230041
0.002268496517
0.003817466337
0.005305661964
0.006464583679
0.007032954042
0.006837884877
0.005862974463
0.004295513811
0.002601495323
-0.0004611027339
-0.001689477083
-0.002600592676
-0.003143777096
-0.003493146089
-0.003733083024
-0.003857614893
-0.003805250682
-0.003484303684
-0.002798453879
-0.001679925868
-0.0001292825087
0.001746717087
0.003713723502
0.005425216739
0.006489065494
0.006578988066
0.00556008553
0.003611679829
0.001372597763
-0.00245716676
-0.003809088971
-0.004838009968
-0.005505021282
-0.006021193598
-0.006484089526
-0.006881276586
-0.007129356029
-0.007098669418
-0.006637586109
-0.005608470486
-0.003938881335
-0.00168102643
0.0009348916563
0.003484419431
0.005402358264
0.006121724391
0.005280466255
0.002976311309
7.344171508e-05
-0.005331216108
-0.006779673068
-0.007922227462
-0.008731422354
-0.009459144483
-0.01021912539
-0.01099535931
-0.01168379085
-0.01211322478
-0.01206405874
-0.01130266478
-0.009641873246
-0.007025035481
-0.00362351311
9.012231662e-05
0.003350352686
0.005242020358
0.005002785007
0.002489398492
-0.001175020603
-0.009147524065
-0.01066051241
-0.01190475588
-0.01286343423
-0.01383792031
-0.01496599018
-0.01623550993
-0.01752764295
-0.01863090079
-0.01924948036
-0.01902968063
-0.01762225428
-0.01479319686
-0.01056613559
-0.00538441578
-0.0001963422864
0.003634463717
0.004707794761
0.002352286435
-0.002085859029
-0.01393821714
-0.01547622736
-0.01679013878
-0.01787332541
-0.01909380492
-0.0206279649
-0.02247975368
-0.02452595673
-0.02652177166
-0.02809459746
-0.02875541679
-0.02795338251
-0.02520518331
-0.02027253736
-0.01343674983
-0.005731755961
0.0009911392254
0.004428239971
0.002941741618
-0.002080992939
-0.01971351726
-0.02122243882
-0.02253116559
-0.023646683
-0.0250365102
-0.02693913178
-0.02939020777
-0.0322744027
-0.03532400175
-0.03809666976
-0.03996741356
-0.04016760257
-0.03789503575
-0.03255185854
-0.02408228932
-0.01341020093
-0.002783340226
0.004386737667
0.004939886117
-9.114479951e-05
-0.02649758729
-0.02788874295
-0.02903374703
-0.02997113053
-0.03132869285
-0.03344086336
-0.03638979754
-0.04007590246
-0.04421570181
-0.04830616034
-0.05159594555
-0.0530993561
-0.05168895961
-0.04632511248
-0.03645484649
-0.02262666666
-0.007214586812
0.005254201547
0.009549422204
0.005743355158
-0.03441594385
-0.0355097235
-0.03617291211
-0.03653414196
-0.0374855861
-0.03949730146
-0.04270186992
-0.04700870838
-0.05211214816
-0.05744819611
-0.06214904762
-0.06503206132
-0.0646661586
-0.05956518526
-0.04859106704
-0.03166465888
-0.01086117385
0.008497771533
0.01880040192
0.01845440816
-0.04388668234
-0.0442607015
-0.04381933718
-0.04293072378
-0.04290365623
-0.04436444818
-0.04746832196
-0.05209884991
-0.05789742085
-0.0642177415
-0.070070383
-0.07409156243
-0.07458294673
-0.06966608856
-0.05763926881
-0.03766519519
-0.01107096811
0.01670679208
0.03586589877
0.04251688528
-0.05595833183
-0.05462462789
-0.05188128478
-0.04868970791
-0.04693197486
-0.0473191851
-0.04993424695
-0.05455888651
-0.06072115145
-0.06764485588
-0.07418930429
-0.07880323478
-0.07954358554
-0.07419424561
-0.06057568689
-0.03712113026
-0.004116860462
0.03375627733
0.06524867593
0.0835614956
-0.07287688695
-0.06768055509
-0.06029952563
-0.05325847217
-0.04892741456
-0.04777099547
-0.04959613852
-0.05396296525
-0.06019785212
-0.06733351646
-0.07403685941
-0.07854200985
-0.07864882868
-0.07180685413
-0.05538486496
-0.02713039711
0.01383421071
0.06447457443
0.1131335981
0.148662813
-0.101614705
-0.08577468813
-0.06857474832
-0.05554544328
-0.04793236636
-0.04503119698
-0.04603372657
-0.05012066403
-0.05632207015
-0.06343271131
-0.06992294701
-0.07379533238
-0.07256805787
-0.06330887289
-0.04280688002
-0.007927410741
0.04379581845
0.1121726869
0.1883741192
0.2552772693
-0.1738919202
-0.1131025113
-0.07295384062
-0.05184365508
-0.04142024096
-0.03752601211
-0.03841138914
-0.04278084943
-0.0493067143
-0.05655791812
-0.0629207495
-0.06626676002
-0.06385881788
-0.05240706725
-0.02804495708
0.01373159509
0.07844463104
0.1722669802
0.2993936913
0.448719369
-0.3537876597
-0.1534858688
-0.0694903809
-0.04258149758
-0.03150012871
-0.0275025947
-0.02890889612
-0.03409608209
-0.04140589611
-0.04925629887
-0.05590762895
-0.05919768145
-0.05640524962
-0.04416347103
-0.01798775472
0.02833828353
0.1047140118
0.2291782398
0.4306567065
0.7321154719
)


// ************************************************************************* //
