/*--------------------------------*- C++ -*----------------------------------*\
  =========                 |
  \\      /  F ield         | OpenFOAM: The Open Source CFD Toolbox
   \\    /   O peration     | Website:  https://openfoam.org
    \\  /    A nd           | Version:  13
     \\/     M anipulation  |
\*---------------------------------------------------------------------------*/
FoamFile
{
    format      ascii;
    class       surfaceScalarField;
    location    "15";
    object      phi_0;
}
// * * * * * * * * * * * * * * * * * * * * * * * * * * * * * * * * * * * * * //

dimensions      [0 3 -1 0 0 0 0];

internalField   nonuniform List<scalar> 
760
(
1.048875466e-06
-1.049783527e-06
-3.830381399e-05
3.935319511e-05
-0.0001184232998
8.012030439e-05
-0.0002257046709
0.0001072822739
-0.0003465421105
0.0001208374465
-0.0004694931516
0.0001229507844
-0.0005846921579
0.000115198418
-0.0006828415846
9.81491996e-05
-0.0007546980796
7.185624031e-05
-0.0007914038299
3.670500489e-05
-0.0007856904934
-5.713689027e-06
-0.000733769239
-5.192137708e-05
-0.0006373900729
-9.637874194e-05
-0.0005054313807
-0.0001319579827
-0.0003541796588
-0.0001512510033
-0.0002056220212
-0.0001485572565
-8.350957441e-05
-0.0001221123951
-7.52658179e-06
-7.598295871e-05
1.444353254e-05
-2.197002254e-05
1.444316817e-05
-4.155720355e-05
4.05075253e-05
-0.0001785971112
0.0001763949366
-0.0004002990764
0.0003018242867
-0.0006786672769
0.0003856509465
-0.0009846966998
0.0004268662265
-0.001291997405
0.0004302510206
-0.001576521436
0.0003997218309
-0.001815436806
0.0003370629953
-0.001986764154
0.0002431824663
-0.002070502051
0.0001204419724
-0.002051316504
-2.489951447e-05
-0.001922290246
-0.0001809471284
-0.001688937618
-0.0003297291872
-0.001372034664
-0.0004488592144
-0.001007857629
-0.0005154273986
-0.0006444341718
-0.0005119803145
-0.0003331996831
-0.0004333462285
-0.0001166910814
-0.0002924912803
-1.409183519e-05
-0.0001245709042
3.51085769e-07
-9.281376255e-05
0.0001333222659
-0.0003360154551
0.0004195986488
-0.0006911168366
0.0006569262722
-0.001117417049
0.0008119509215
-0.001575808998
0.0008852568551
-0.00203036237
0.0008848024845
-0.002447687444
0.0008170461698
-0.00279592758
0.0006853018529
-0.003044750881
0.0004920040108
-0.003167020185
0.0002427109558
-0.003142179769
-4.973871104e-05
-0.002960862648
-0.0003622634074
-0.00262978224
-0.0006608083631
-0.002175526219
-0.0009031137923
-0.001645447112
-0.001045505103
-0.001103742358
-0.001053684551
-0.0006213933346
-0.0009156950234
-0.0002604368076
-0.0006534480854
-5.603180083e-05
-0.0003289782504
-5.568064021e-05
-0.0001404852129
0.0002738078233
-0.0004847937709
0.0007639076859
-0.0009652697003
0.001137401072
-0.001526388443
0.001373068388
-0.00212018083
0.001479048009
-0.002704157399
0.001468778282
-0.003239066908
0.00135195541
-0.003687281631
0.001133516273
-0.004012634691
0.0008173557976
-0.004182129211
0.0004122051477
-0.004169532515
-6.23346959e-05
-0.003960490935
-0.0005713042131
-0.003558459316
-0.001062839277
-0.002990208928
-0.00147136442
-0.002308900922
-0.001726813393
-0.00159196256
-0.001770623297
-0.0009310096876
-0.00157664777
-0.0004131906053
-0.001171268208
-9.842780822e-05
-0.0006437413341
-0.0001541083302
-0.000183253415
0.0004570615743
-0.0006204277331
0.00120108115
-0.001216958868
0.001733930847
-0.001902642865
0.002058751954
-0.002621583735
0.002197989078
-0.003326733625
0.002173928704
-0.0039754795
0.002000700643
-0.004526744141
0.001684780562
-0.004940026512
0.001230638021
-0.005176565561
0.0006487449482
-0.005202680378
-3.622039635e-05
-0.004995200802
-0.0007787850351
-0.004548748282
-0.001509292122
-0.003883984338
-0.00213612883
-0.003054733956
-0.002556063926
-0.002150118041
-0.002675239063
-0.001286536173
-0.002440230438
-0.0005859336535
-0.001871871264
-0.000144110524
-0.001085563741
-0.0002982186422
-0.0002212296584
0.0006782908894
-0.0007418444591
0.001721694759
-0.00144377847
0.002435864868
-0.002243719925
0.002858693788
-0.003079285995
0.003033555509
-0.003900731842
0.002995375195
-0.004664224224
0.002764193164
-0.005327211075
0.002347767576
-0.005846100233
0.001749526581
-0.006176300013
0.0009789449494
-0.006274777125
6.225559295e-05
-0.006105488809
-0.0009480746933
-0.005648006293
-0.001966774516
-0.004909256685
-0.002874878199
-0.00393652724
-0.003528793328
-0.002826996309
-0.003784768801
-0.001725404464
-0.003541822756
-0.0008006075915
-0.002796666204
-0.0002004581339
-0.001685713226
-0.0004986767921
-0.0002542709986
0.0009325616239
-0.0008475650752
0.002314988324
-0.001642104298
0.003230404782
-0.00254360478
0.003760195637
-0.003484999475
0.003974951425
-0.004415807739
0.003926183458
-0.005293142436
0.003641527377
-0.006075105845
0.003129731297
-0.006716698567
0.002391119038
-0.007168218562
0.00143046533
-0.007376440726
0.0002704770508
-0.007289341232
-0.001035174203
-0.006865522065
-0.00239059274
-0.006089284486
-0.003651114423
-0.004990721667
-0.004627355499
-0.003666190196
-0.005109299309
-0.00228773573
-0.004920277761
-0.001083445458
-0.004000954675
-0.0002766150129
-0.002492544937
-0.000775292499
-0.000281786059
0.00121434752
-0.000934980984
0.002968184542
-0.001805966574
0.004101392166
-0.002791590445
0.004745820585
-0.003821935707
0.005005296902
-0.004847794588
0.004952041547
-0.005829555223
0.004623287306
-0.006728563354
0.004028740084
-0.007501054632
0.003163610875
-0.008094537144
0.002023948907
-0.008446942305
0.0006228822568
-0.008489640333
-0.0009924748139
-0.008156234389
-0.002723998589
-0.007399511314
-0.004407837576
-0.006218242369
-0.005808624054
-0.004691405545
-0.006636136249
-0.003007640988
-0.006604042551
-0.001461727054
-0.00554686963
-0.0003830202241
-0.003571252355
-0.00115831303
-0.0003031049087
0.001517452646
-0.001001130257
0.003666211743
-0.001928104428
0.005028368396
-0.002973594679
0.005791311094
-0.004066407875
0.00609810874
-0.005160541025
0.006046173832
-0.006222125878
0.005684872696
-0.007218874172
0.005025489937
-0.008112083845
0.004056821067
-0.008850881323
0.002762746599
-0.009368828061
0.001140827915
-0.009584010772
-0.0007772911433
-0.009405124454
-0.002902885305
-0.008747197339
-0.005065766058
-0.007562214181
-0.006993607478
-0.005887129373
-0.00831122206
-0.003901509193
-0.008589661387
-0.001960181655
-0.007488198364
-0.0005314577747
-0.004999975772
-0.001689769548
-0.0003182837267
0.001835737085
-0.001044623135
0.004392552734
-0.002002806082
0.005986552297
-0.003075772085
0.00686427624
-0.004192250397
0.007214585143
-0.005311273316
0.007165196174
-0.00640725817
0.006780858776
-0.007457801639
0.006076034978
-0.008434114202
0.005033133024
-0.009293367334
0.003621998695
-0.009972620694
0.00182007981
-0.01038487789
-0.0003650349456
-0.01042035783
-0.002867406176
-0.00995633281
-0.005529791114
-0.008885911094
-0.008064027773
-0.007174766261
-0.01002236585
-0.004950268269
-0.01081415719
-0.002594178369
-0.00984428779
-0.0007348485492
-0.00685930802
-0.002424619444
-0.0003294064791
0.00216514413
-0.001068684782
0.00513183191
-0.002030343528
0.006948211265
-0.003090141527
0.007924073222
-0.004177843142
0.008302285882
-0.00525953525
0.008246888384
-0.006320585261
0.007841909466
-0.007352117767
0.007107567942
-0.008340530922
0.00602154476
-0.009258648607
0.004540114327
-0.01005744181
0.002618873479
-0.01065780896
0.0002353330397
-0.01094500361
-0.00258021038
-0.01076846331
-0.005706330139
-0.009960324253
-0.008872166686
-0.008389580945
-0.01159310888
-0.006075409427
-0.01312833097
-0.003356847087
-0.0125628513
-0.001005870525
-0.009210286129
-0.003430492372
-0.0003425544026
0.002507699179
-0.001085331482
0.005874609461
-0.002022598217
0.007885477907
-0.003021351098
0.008922825117
-0.004014466068
0.009295400843
-0.004978155763
0.009210578607
-0.005911856339
0.008775609968
-0.006823706103
0.008019416784
-0.007720058176
0.006917897213
-0.008596601177
0.005416657842
-0.009428966271
0.003451239125
-0.01016170854
0.0009680745373
-0.01069432352
-0.002047595272
-0.01087005352
-0.005530598913
-0.01047430111
-0.009267918454
-0.009270215084
-0.01279719252
-0.007114410418
-0.01528413758
-0.004198658965
-0.01547860456
-0.001352965687
-0.01205597509
-0.004783455295
-0.0003708064556
0.002878506313
-0.001120689768
0.00662449317
-0.002008926771
0.008773713941
-0.002892523589
0.009806419968
-0.003712853676
0.01011573036
-0.00446201772
0.009959742894
-0.00515779405
0.009471387232
-0.005828511105
0.008690133646
-0.006503718767
0.007593105088
-0.007206742867
0.006119683214
-0.00794616908
0.004190666034
-0.008703693922
0.00172559881
-0.009415683318
-0.001335605615
-0.009949169913
-0.004997111739
-0.01007670425
-0.00914038285
-0.009475024937
-0.01339887042
-0.007808177241
-0.0169509873
-0.00500247729
-0.01828430926
-0.001771618592
-0.01528683521
-0.006555076464
-0.0004389926669
0.003317499221
-0.001221133273
0.007406633525
-0.002039840904
0.009592419432
-0.002745573352
0.01051214974
-0.003301304119
0.01067146029
-0.003725857949
0.01038429756
-0.004061655197
0.009807185909
-0.004360056886
0.008988535506
-0.004674806593
0.00790785478
-0.00505760959
0.00650248577
-0.005552666793
0.004685722342
-0.006186606264
0.002359538533
-0.006950107421
-0.0005721028043
-0.007766552045
-0.004180665752
-0.008445134613
-0.008461797643
-0.008630794613
-0.01321321086
-0.007813586053
-0.01776819684
-0.005562621501
-0.02053527418
-0.00222833171
-0.01862112309
-0.00878340778
-0.0005904804722
0.003907979475
-0.001457382931
0.008273534097
-0.002180790786
0.0103158245
-0.002623806507
0.01095516448
-0.002799621164
0.01084727528
-0.002772375527
0.01035705221
-0.002617845
0.009652655688
-0.002412701686
0.008783391921
-0.002233407389
0.007728560654
-0.002156222803
0.006425301286
-0.002256901594
0.004786401951
-0.002605428513
0.002708067919
-0.003252931911
7.54004892e-05
-0.004202414376
-0.003231186026
-0.005351820898
-0.007312392313
-0.006398392898
-0.01216663801
-0.00674143121
-0.01742515416
-0.005575771847
-0.02170093272
-0.002633330308
-0.02156357007
-0.01141673802
-0.0008892818488
0.004797260855
-0.001911528946
0.009295778397
-0.002467778039
0.01087207206
-0.00249841011
0.01098579803
-0.002125055517
0.01047392205
-0.001484927844
0.009716923448
-0.0006963741528
0.008864099209
0.0001385134132
0.007948502441
0.0009263744175
0.00694069939
0.001573798901
0.005777876345
0.001983589687
0.004376609987
0.002053190419
0.002638467033
0.001679549157
0.000449041016
0.0007769912316
-0.002328626019
-0.0006745943917
-0.005860806858
-0.002515108656
-0.01032612739
-0.004199173587
-0.01574109531
-0.004643162577
-0.02125694627
-0.002796048657
-0.02341068284
-0.01421278693
-0.001397676008
0.006194936281
-0.00258837962
0.01048648076
-0.002720078379
0.01100377132
-0.002016063985
0.01028178515
-0.0008111450214
0.009269004066
0.0006593145749
0.008246461683
0.002237396358
0.007286015702
0.00380694267
0.006378956852
0.005270324986
0.005477318179
0.006532564644
0.004515635398
0.007490022137
0.00341915117
0.008024971069
0.002103519966
0.008002423395
0.0004715915494
0.007274314151
-0.001600513157
0.005701763935
-0.004288255582
0.003244183456
-0.007868545535
0.0002175145839
-0.01271442858
-0.002281582089
-0.01875784547
-0.002391615964
-0.02330064932
-0.01660440234
-0.002138573786
0.008333509777
-0.002984649258
0.01133255773
-0.001852427007
0.009871549204
0.0002366180709
0.008192739745
0.002672498465
0.006833122342
0.005180665892
0.005738293106
0.007620570636
0.004846110694
0.009904616371
0.004094910653
0.0119647861
0.003417147543
0.01372943086
0.002750991795
0.01510971325
0.002038871469
0.01599506408
0.001218166185
0.01624480082
0.0002218512234
0.01568348052
-0.001039194218
0.01409362783
-0.00269840347
0.01123511093
-0.005010031132
0.007017086898
-0.008496401065
0.002144607494
-0.0138853671
-0.001013021834
-0.02014302411
-0.01761742265
-0.002462150179
0.01079565997
1.417209612e-05
0.008856239291
0.004172637381
0.005713086331
0.008253045762
0.00411233224
0.01195568162
0.003130486597
0.01526418606
0.002429787934
0.01818938346
0.001920912878
0.02074610412
0.001538191093
0.02293702065
0.001226231486
0.02474492995
0.0009430819477
0.02612915378
0.0006546497476
0.02701404035
0.0003332825145
0.02728027428
-4.437930091e-05
0.0267601625
-0.0005190867476
0.02520480206
-0.001143040734
0.02225406936
-0.00205929867
0.01739884067
-0.003641169681
0.01025022668
-0.006736753054
0.002382525569
-0.01227532071
-0.01523489588
0.01079565997
0.01965189985
0.02536498742
0.02947732036
0.03260780671
0.03503759473
0.036958509
0.03849670028
0.03972292955
0.04066601118
0.04132066229
0.04165394256
0.04160956561
0.04109047865
0.03994743866
0.03788814145
0.03424696932
0.02751021861
0.01523489673
)
;

boundaryField
{
    movingWall
    {
        type            calculated;
        value           uniform 0;
    }
    fixedWalls
    {
        type            calculated;
        value           uniform 0;
    }
    frontAndBack
    {
        type            empty;
    }
}


// ************************************************************************* //
