/*--------------------------------*- C++ -*----------------------------------*\
  =========                 |
  \\      /  F ield         | OpenFOAM: The Open Source CFD Toolbox
   \\    /   O peration     | Website:  https://openfoam.org
    \\  /    A nd           | Version:  13
     \\/     M anipulation  |
\*---------------------------------------------------------------------------*/
FoamFile
{
    format      ascii;
    class       surfaceScalarField;
    location    "15";
    object      phi_0;
}
// * * * * * * * * * * * * * * * * * * * * * * * * * * * * * * * * * * * * * //

dimensions      [0 3 -1 0 0 0 0];

internalField   nonuniform List<scalar> 
760
(
-1.321381669e-05
1.321399911e-05
-7.184099597e-05
5.862700664e-05
-0.0001615933074
8.97524484e-05
-0.0002643857296
0.0001027924352
-0.0003670531677
0.0001026674976
-0.0004600135061
9.296044276e-05
-0.0005360415324
7.602813465e-05
-0.0005894232887
5.338178407e-05
-0.0006157006379
2.627732737e-05
-0.0006119126025
-3.788044409e-06
-0.0005770289181
-3.488370397e-05
-0.0005127450333
-6.428391735e-05
-0.0004239443656
-8.880071149e-05
-0.0003189501946
-0.0001049942191
-0.0002092258153
-0.0001097244402
-0.0001083707628
-0.0001008550961
-3.02548245e-05
-7.811592485e-05
1.385906582e-05
-4.411382044e-05
2.175213196e-05
-7.893009316e-06
2.175215739e-05
-6.847025304e-05
8.168389826e-05
-0.0002448860024
0.0002350429337
-0.000491641706
0.00033650797
-0.0007693919982
0.0003805424442
-0.0010465048
0.0003797802197
-0.001298235921
0.0003446915428
-0.001505208785
0.0002830010053
-0.001652151141
0.0002003241561
-0.001727482008
0.000101608276
-0.001723919347
-7.350545516e-06
-0.00163907466
-0.0001197282347
-0.001477519414
-0.0002258390791
-0.001251487122
-0.0003148329636
-0.000981422781
-0.0003750585021
-0.0006951920609
-0.0003959550422
-0.0004254923308
-0.000370554666
-0.0002051734772
-0.0002984346363
-6.010000451e-05
-0.0001891872499
-6.465874271e-07
-6.73464601e-05
2.11056045e-05
-0.0001224340199
0.0002041180968
-0.0004132783581
0.0005258873045
-0.0008053811909
0.0007286108444
-0.001242148376
0.0008173097499
-0.001677994976
0.0008156269621
-0.002076365507
0.00074306207
-0.002407881496
0.0006145169536
-0.002648935879
0.0004413784893
-0.002781302908
0.0002339753176
-0.002793136219
4.482830702e-06
-0.002679526578
-0.0002333378863
-0.002445843262
-0.0004595224985
-0.002108542436
-0.0006521339115
-0.001696311738
-0.0007872892354
-0.001249237302
-0.0008430293961
-0.0008153902123
-0.0008044016179
-0.0004441334086
-0.0006696913526
-0.0001761927799
-0.0004571278632
-3.226373709e-05
-0.0002112754988
-1.115805588e-05
-0.0001713342998
0.0003754522528
-0.0005701196937
0.0009246726491
-0.001101326754
0.001259817975
-0.001691044096
0.001407027139
-0.002281376766
0.001405959662
-0.002826139718
0.001287825039
-0.003287694029
0.001076071354
-0.003634944857
0.0007886293705
-0.003842796534
0.0004418270583
-0.003892740987
5.442734329e-05
-0.003775688922
-0.0003503899365
-0.00349347156
-0.0007417399034
-0.003062573068
-0.001083032434
-0.002515961288
-0.00133390098
-0.001903338132
-0.001455652469
-0.001288044304
-0.001419695399
-0.0007393070209
-0.001218428674
-0.0003197533494
-0.0008766815745
-7.102950746e-05
-0.0004599992709
-8.218744678e-05
-0.0002160890266
0.0005915412905
-0.0007158027394
0.001424386394
-0.001379934636
0.001923949918
-0.002118543916
0.002145636404
-0.002863087704
0.002150503386
-0.003559589705
0.001984326986
-0.004163608934
0.001680090617
-0.004637110774
0.001262131201
-0.00494733697
0.0007520532325
-0.005067493763
0.0001745841239
-0.004979512363
-0.0004383713931
-0.004677286957
-0.001043965383
-0.004171697081
-0.001588622321
-0.003494956211
-0.00201064179
-0.00270350771
-0.0022471009
-0.001877001952
-0.002246201185
-0.00111067127
-0.001984759472
-0.0004997365752
-0.001487616318
-0.0001189034712
-0.0008408322424
-0.00020109082
-0.0002563244922
0.0008478658546
-0.0008479619905
0.002016023912
-0.001635922993
0.002711910953
-0.00251699747
0.003026710881
-0.003414311128
0.003047816996
-0.004268172879
0.0028381887
-0.005028948564
0.002440866343
-0.005652385968
0.00188556858
-0.006097495195
0.001197162443
-0.006326860519
0.0004039494432
-0.006309589648
-0.0004556423087
-0.006025766678
-0.001327788412
-0.005473742831
-0.002140646173
-0.004677978298
-0.002806406281
-0.003696561888
-0.003228517287
-0.002624873544
-0.003317889602
-0.001590506104
-0.00301912702
-0.0007347042805
-0.002343418114
-0.0001817071737
-0.001393829194
-0.000382797962
-0.0002901374561
0.001138003343
-0.0009607122404
0.002686598614
-0.001857693146
0.003608891789
-0.002868401943
0.004037419636
-0.003910584076
0.004089999042
-0.004921369073
0.003848973614
-0.005848055836
0.003367553089
-0.006641623445
0.002679136106
-0.007253225437
0.001808764376
-0.0076336541
0.0007843781006
-0.007736107482
-0.0003531889241
-0.007521404456
-0.00154249143
-0.006967602732
-0.002694447855
-0.006081908837
-0.003692100144
-0.004914737889
-0.00439568824
-0.003571652928
-0.004660974611
-0.002215587701
-0.004375192235
-0.001048578307
-0.003510427393
-0.0002678778246
-0.002174529529
-0.0006506758159
-0.0003150326996
0.001453036045
-0.001045646468
0.003417212302
-0.002028605683
0.004591850896
-0.003145905883
0.005154719816
-0.004313163014
0.005257256111
-0.005467244847
0.005003055397
-0.006555186387
0.004455494624
-0.007525816631
0.00364976628
-0.008324572935
0.002607520627
-0.008891592427
0.00135139759
-0.009163613439
-8.116788506e-05
-0.00907876943
-0.001627335369
-0.008587898599
-0.003185318604
-0.007669657325
-0.004610341402
-0.006352200327
-0.005713145258
-0.004737239204
-0.006275935722
-0.003017254716
-0.006095176566
-0.001466807215
-0.005060874765
-0.0003874857181
-0.003253850968
-0.001038161593
-0.0003284957618
0.001781531776
-0.001094038754
0.004182755282
-0.002130361618
0.005628173651
-0.003318090561
0.006342448766
-0.004573870413
0.006513035897
-0.005837365224
0.006266550151
-0.007058755163
0.005676884543
-0.008188677778
0.004779688849
-0.009171284123
0.003590126946
-0.009940575861
0.002120689328
-0.0104198415
0.0003980977687
-0.01052655688
-0.00152061993
-0.0101803077
-0.003531567717
-0.009320800314
-0.005469848796
-0.007935304567
-0.007098641021
-0.006097095742
-0.008114144519
-0.004006973289
-0.008185298861
-0.002011490905
-0.007056357137
-0.0005519023311
-0.004713439588
-0.001590063954
-0.0003294298099
0.002110961522
-0.001100310046
0.004953635545
-0.002148516432
0.006676379925
-0.003356419542
0.007550351901
-0.004644449484
0.007801065779
-0.005958031244
0.007580131852
-0.007254251693
0.006973104931
-0.008490607456
0.006016044562
-0.009616572179
0.004716091661
-0.01056796676
0.00307208393
-0.01126396484
0.001094095851
-0.01160766554
-0.001176919197
-0.01149142293
-0.003647810332
-0.01081080331
-0.006150468472
-0.009494123624
-0.008415320721
-0.007553116918
-0.01005515119
-0.005155380602
-0.01058303513
-0.002693008453
-0.009518729427
-0.0007731719816
-0.006633276137
-0.002363235907
-0.0003199802574
0.002430941724
-0.001066544691
0.005700200031
-0.002079782732
0.007689617867
-0.003245467234
0.008716036435
-0.004490224839
0.00904582334
-0.00576818444
0.008858091429
-0.007047248225
0.008252168636
-0.008297341972
0.007266138224
-0.009481157313
0.005899906953
-0.01054694775
0.004137874363
-0.01142267105
0.001969819092
-0.01201110811
-0.0005884821267
-0.01219037504
-0.003468543545
-0.01181701959
-0.006523824035
-0.01075093878
-0.009481401525
-0.008909188748
-0.01189690119
-0.006366873952
-0.01312534995
-0.003496339598
-0.01238926393
-0.001062206367
-0.009067409332
-0.003425442203
-0.0003078905389
0.002738832225
-0.001007805494
0.006400115061
-0.001940211795
0.008622024085
-0.002994230737
0.009770055386
-0.004105536429
0.01015712896
-0.00524058739
0.009993142356
-0.006382274193
0.009393855363
-0.007518334446
0.008402198374
-0.008632199338
0.007013771721
-0.009695204548
0.005200879526
-0.01065869185
0.002933306235
-0.01144291958
0.0001957455894
-0.01193397788
-0.002977485311
-0.01196814441
-0.006489657542
-0.01134517029
-0.01010437554
-0.009868705419
-0.013373366
-0.007458715864
-0.01553533948
-0.004362289851
-0.01548568994
-0.001424788992
-0.01200491007
-0.004850231299
-0.0003098238745
0.003048656052
-0.000958110288
0.007048401538
-0.001772816179
0.009436729887
-0.00264538355
0.01064262272
-0.0035257619
0.01103750719
-0.00439860043
0.01086598076
-0.00526687331
0.01026212815
-0.006140849022
0.009276174035
-0.007030037486
0.007902960085
-0.007936357997
0.006107200044
-0.008845510716
0.003842458984
-0.009717116332
0.001067351199
-0.01046257295
-0.002232028712
-0.01093412453
-0.006018105864
-0.01090250879
-0.01013599109
-0.01006947589
-0.01420639888
-0.008159204929
-0.01744561055
-0.00516771755
-0.01847717744
-0.001853996795
-0.01531863073
-0.006704228296
-0.0003565114
0.00340516738
-0.0009770186288
0.007668908754
-0.00165255567
0.01011226678
-0.002277953108
0.01126802005
-0.002828566974
0.01158812098
-0.00331756809
0.01135498178
-0.003775059922
0.01071961991
-0.004238018166
0.009739132331
-0.004744254213
0.008409196331
-0.005328424663
0.00669137062
-0.006015356976
0.004529391477
-0.006809935239
0.001861929483
-0.007677495242
-0.001364468723
-0.008517947396
-0.005177653633
-0.009125329572
-0.009528608893
-0.00915125452
-0.01418047408
-0.008133531212
-0.01846333386
-0.005713120323
-0.02089758843
-0.00231848937
-0.0187132616
-0.009022717879
-0.0005018449983
0.003907012293
-0.001155783635
0.008322847297
-0.001682911649
0.01063939459
-0.001993322819
0.0115784311
-0.002110586824
0.01170538504
-0.002093318495
0.01133771359
-0.002008008859
0.01063431034
-0.001922093341
0.009653216955
-0.001900547894
0.008387650922
-0.002007658105
0.00679848096
-0.002303674108
0.004825407525
-0.002838986142
0.002397241496
-0.003640964274
-0.0005624906211
-0.004685684555
-0.004132933377
-0.005848910928
-0.008365382523
-0.006818728426
-0.01321065679
-0.007024034222
-0.01825802801
-0.005719981344
-0.02220164129
-0.002740399202
-0.02169284367
-0.01176311698
-0.0008323861403
0.00473939832
-0.001609560401
0.009100021488
-0.001959708926
0.01098954305
-0.001852194869
0.01147091705
-0.00140192798
0.01125511805
-0.0007375933792
0.01067337905
2.650965265e-05
0.009870207606
0.0007938179007
0.008885908817
0.001472599077
0.007708869913
0.001976212456
0.006294867641
0.002217431721
0.004584188275
0.002108821752
0.002505851453
0.001565208666
-1.887760278e-05
0.0005290969367
-0.003096821527
-0.0009979837426
-0.006838301944
-0.002839451062
-0.01136918942
-0.00446723335
-0.01663024549
-0.004814872903
-0.0218540021
-0.002945601283
-0.02356211519
-0.01470871852
-0.001466889499
0.006206287704
-0.002383932738
0.01001706473
-0.002381285777
0.01098689613
-0.001615404826
0.01070503623
-0.0003652077375
0.01000492098
0.001145095025
0.009163076402
0.002751359474
0.008263943232
0.004328029264
0.00730923914
0.005770143263
0.006266755897
0.006977401193
0.005087609623
0.007846356615
0.003715232823
0.008264963687
0.002087244344
0.00810878544
0.0001373007859
0.007251479206
-0.00223951533
0.005574245517
-0.005161068331
0.003065111861
-0.008860055714
7.323604577e-05
-0.0136383699
-0.002449624333
-0.01933114168
-0.002602460366
-0.02340927916
-0.01731117876
-0.002365991432
0.008572279108
-0.002966038012
0.01061711119
-0.001927853243
0.009948711272
7.271106396e-05
0.008704471936
0.002523192429
0.00755443973
0.005125723415
0.006560545483
0.007703188337
0.00568647841
0.01013694063
0.004875486943
0.01233176735
0.004071929301
0.01419496238
0.00322441475
0.01562498477
0.002285210564
0.01650402831
0.001208200986
0.01668540036
-4.407130465e-05
0.01601757235
-0.001571687271
0.01429743234
-0.003440928304
0.01132679188
-0.005889415321
0.007050812779
-0.009362390483
0.00219865412
-0.01447898311
-0.001028613716
-0.02018201162
-0.01833979249
-0.002150017127
0.01072229623
-7.200203929e-05
0.008539096046
0.003740607252
0.006136101937
0.007716359876
0.004728719201
0.01155592234
0.003714877225
0.01513261048
0.002983857522
0.01838847738
0.002430611618
0.02128989612
0.001974068243
0.0238003334
0.001561492029
0.02586801332
0.001156734741
0.02741991057
0.0007333132694
0.02835559685
0.0002725145623
0.02856849821
-0.0002569726024
0.02788229951
-0.000885488372
0.02609551095
-0.001654139759
0.02290557109
-0.002699475473
0.01790494399
-0.004361763718
0.01076556874
-0.00733960761
0.002911599347
-0.01232804222
-0.01542819319
0.0107222962
0.01926139226
0.02539749411
0.03012621342
0.03384109067
0.03682494827
0.03925555999
0.04122962828
0.04279112041
0.04394785524
0.04468116855
0.04495368314
0.04469671039
0.04381122203
0.04215708217
0.03945760681
0.03509584301
0.02775623531
0.0154281932
)
;

boundaryField
{
    movingWall
    {
        type            calculated;
        value           uniform 0;
    }
    fixedWalls
    {
        type            calculated;
        value           uniform 0;
    }
    frontAndBack
    {
        type            empty;
    }
}


// ************************************************************************* //
