/*--------------------------------*- C++ -*----------------------------------*\
  =========                 |
  \\      /  F ield         | OpenFOAM: The Open Source CFD Toolbox
   \\    /   O peration     | Website:  https://openfoam.org
    \\  /    A nd           | Version:  13
     \\/     M anipulation  |
\*---------------------------------------------------------------------------*/
FoamFile
{
    format      ascii;
    class       volVectorField;
    location    "15";
    object      U;
}
// * * * * * * * * * * * * * * * * * * * * * * * * * * * * * * * * * * * * * //

dimensions      [0 1 -1 0 0 0 0];

internalField   nonuniform List<vector> 
400
(
(0.0001293665431 -0.0001318299449 0)
(-0.0002001419129 6.638187261e-05 0)
(-0.001444599218 0.000273307907 0)
(-0.003407881679 0.0004059804037 0)
(-0.005791592701 0.0004738157399 0)
(-0.00833267897 0.0004941099478 0)
(-0.01081511403 0.000476202331 0)
(-0.01304441678 0.0004212627188 0)
(-0.01482865093 0.0003260128645 0)
(-0.01597621562 0.0001880141304 0)
(-0.01631292426 1.108083995e-05 0)
(-0.01571628993 -0.0001905361763 0)
(-0.01415931724 -0.0003901719808 0)
(-0.01175112665 -0.0005511725366 0)
(-0.008758210748 -0.0006340908592 0)
(-0.005589922622 -0.0006080184829 0)
(-0.00273876577 -0.0004626287578 0)
(-0.0006752667692 -0.0002170217699 0)
(0.0003055821416 6.59944993e-05 0)
(0.0002388280489 0.0002337067285 0)
(-7.564772767e-05 0.0001968199838 0)
(-0.001825446931 0.001731418544 0)
(-0.005572168095 0.00328384209 0)
(-0.01082205026 0.004341619937 0)
(-0.01693906549 0.004879838945 0)
(-0.02334471445 0.004966527037 0)
(-0.02952580151 0.004655168461 0)
(-0.0350031294 0.003965370566 0)
(-0.0393109264 0.002900453473 0)
(-0.04200487813 0.001479756932 0)
(-0.04270439766 -0.0002276010577 0)
(-0.04116380719 -0.002078190257 0)
(-0.03735775396 -0.003848230902 0)
(-0.03155667941 -0.005255016845 0)
(-0.02436199343 -0.00600952938 0)
(-0.01667122238 -0.005895133501 0)
(-0.009552276142 -0.0048549407 0)
(-0.004026209429 -0.003065734363 0)
(-0.0007768455201 -0.001003108437 0)
(0.0001372027542 0.000351400591 0)
(-0.0003308313622 0.001560810674 0)
(-0.003795372649 0.005604875516 0)
(-0.01004895064 0.00917114913 0)
(-0.01825770687 0.01155919397 0)
(-0.02752135155 0.01273261414 0)
(-0.03706152066 0.01280806798 0)
(-0.04617346901 0.01188372475 0)
(-0.05418795262 0.01000524453 0)
(-0.06045692494 0.00720137169 0)
(-0.06437229231 0.003549304867 0)
(-0.06542201365 -0.0007577888788 0)
(-0.06327781443 -0.005363387293 0)
(-0.05789860399 -0.009740020014 0)
(-0.04962513831 -0.01323742587 0)
(-0.03923290231 -0.01519632961 0)
(-0.02790472756 -0.01512017749 0)
(-0.01708852986 -0.01287170127 0)
(-0.008230038843 -0.008839977622 0)
(-0.002424793771 -0.004039305635 0)
(-3.749208703e-05 -0.000317448437 0)
(-0.0005584341606 0.003963424118 0)
(-0.005664174811 0.0116537098 0)
(-0.01430818059 0.01777840789 0)
(-0.02525792498 0.02173911543 0)
(-0.03734769122 0.02358837788 0)
(-0.0496480918 0.02352468233 0)
(-0.06133303962 0.02170053743 0)
(-0.07161531224 0.01819225851 0)
(-0.07972703205 0.01306167357 0)
(-0.08493906202 0.006458504319 0)
(-0.08661978537 -0.001275655885 0)
(-0.08432912682 -0.009533586308 0)
(-0.07793630147 -0.01742686512 0)
(-0.0677419977 -0.0238546577 0)
(-0.05457302908 -0.02767712893 0)
(-0.03980117191 -0.02799346538 0)
(-0.02522768389 -0.02448161483 0)
(-0.01279412749 -0.01770178187 0)
(-0.004163923765 -0.009241668648 0)
(-0.0001888149702 -0.001844469428 0)
(-0.0007547136772 0.007305596491 0)
(-0.007352890033 0.01970580971 0)
(-0.01820605042 0.02887110109 0)
(-0.03168780512 0.03457652243 0)
(-0.04637791437 0.03709989324 0)
(-0.06122886592 0.03678270926 0)
(-0.07534333111 0.03385197828 0)
(-0.0878697189 0.02841502865 0)
(-0.097963595 0.02055762793 0)
(-0.1047947409 0.0104879825 0)
(-0.1075970326 -0.001318579336 0)
(-0.1057609623 -0.014010658 0)
(-0.09896592962 -0.02632148773 0)
(-0.08734291737 -0.03663652827 0)
(-0.0716406282 -0.0432088877 0)
(-0.05333738062 -0.04454703545 0)
(-0.03460637447 -0.03994057257 0)
(-0.01803494076 -0.02998108726 0)
(-0.006093846677 -0.0168275347 0)
(-0.0003302852937 -0.004254793316 0)
(-0.0009222701747 0.01147967748 0)
(-0.008845896507 0.02956615096 0)
(-0.02168485492 0.04223154804 0)
(-0.03746373956 0.04985283829 0)
(-0.05453771585 0.05307299441 0)
(-0.07177619529 0.05245160736 0)
(-0.08825447459 0.04831812618 0)
(-0.1031025174 0.04080736577 0)
(-0.115436255 0.03000309055 0)
(-0.124339996 0.01612872467 0)
(-0.128895487 -0.0002605926986 0)
(-0.1282636283 -0.01811969607 0)
(-0.1218271621 -0.03582441863 0)
(-0.1093999095 -0.05120154347 0)
(-0.09148854693 -0.06174859101 0)
(-0.06954783089 -0.0651171667 0)
(-0.04610329704 -0.05987146493 0)
(-0.02454966173 -0.04635888024 0)
(-0.008494371546 -0.02726780256 0)
(-0.0005004668909 -0.007679446146 0)
(-0.001060064099 0.01637995391 0)
(-0.01012436697 0.04101765755 0)
(-0.0246789612 0.05761020864 0)
(-0.04246356721 0.06732832838 0)
(-0.06164883923 0.07131259171 0)
(-0.08106036151 0.07042000653 0)
(-0.09979000936 0.06511459838 0)
(-0.1169959793 0.05555235487 0)
(-0.1317969299 0.04177607576 0)
(-0.1432199184 0.02395659764 0)
(-0.1501970091 0.002638930308 0)
(-0.1516228287 -0.0210341639 0)
(-0.1464942212 -0.04515223278 0)
(-0.1341563468 -0.06698019052 0)
(-0.1146655114 -0.08311939754 0)
(-0.08922938039 -0.09003565535 0)
(-0.06058696174 -0.08507070164 0)
(-0.03303281578 -0.06783367852 0)
(-0.01172209269 -0.04136646014 0)
(-0.0007460321282 -0.01242213476 0)
(-0.001164238143 0.02188992134 0)
(-0.01115632983 0.05380340777 0)
(-0.02709499931 0.07469393389 0)
(-0.04650453699 0.08668215945 0)
(-0.06741149602 0.0915297838 0)
(-0.08863740035 0.09047225447 0)
(-0.1093356612 0.08414486835 0)
(-0.1287443735 0.07272019327 0)
(-0.1460407134 0.05615626507 0)
(-0.1602485467 0.03448912533 0)
(-0.1701926036 0.008136224972 0)
(-0.1745155625 -0.02180302225 0)
(-0.1717898785 -0.0532678002 0)
(-0.1607688768 -0.08303741263 0)
(-0.1408244342 -0.1067442409 0)
(-0.1125828397 -0.1193365538 0)
(-0.07866199378 -0.1162825925 0)
(-0.04415547004 -0.09563205801 0)
(-0.01618305462 -0.0602783603 0)
(-0.001124661232 -0.01898664691 0)
(-0.001231593326 0.02787534058 0)
(-0.01191014859 0.06761517856 0)
(-0.02883268031 0.09308378468 0)
(-0.04937074096 0.1074682652 0)
(-0.07143937241 0.1132685317 0)
(-0.09389213404 0.1121834008 0)
(-0.1159884807 0.1050645016 0)
(-0.1371033147 0.09210574251 0)
(-0.1565440325 0.07314411035 0)
(-0.1734177069 0.04800036998 0)
(-0.1865373979 0.01683586757 0)
(-0.1943824384 -0.01946890464 0)
(-0.1951499954 -0.05891028031 0)
(-0.1869572898 -0.09797563071 0)
(-0.1682865402 -0.1314032643 0)
(-0.1387694362 -0.1524024176 0)
(-0.1003312413 -0.1538455957 0)
(-0.05841135194 -0.1309963191 0)
(-0.02231931005 -0.08547295012 0)
(-0.001713117751 -0.02810218293 0)
(-0.001265675885 0.03419072722 0)
(-0.01238466469 0.08209980942 0)
(-0.02983638324 0.1122871545 0)
(-0.05088275805 0.1290838139 0)
(-0.07334700082 0.1358455434 0)
(-0.09614621278 0.1348281485 0)
(-0.1186893581 0.1271578212 0)
(-0.1405480876 0.1130722601 0)
(-0.1612438852 0.09227276519 0)
(-0.180082222 0.06430644511 0)
(-0.1960132161 0.0289639851 0)
(-0.2075252544 -0.013279152 0)
(-0.2126055955 -0.06074568712 0)
(-0.2088261472 -0.1099593422 0)
(-0.1936895893 -0.1550645717 0)
(-0.1654385801 -0.1875770905 0)
(-0.1245425907 -0.1971804785 0)
(-0.07585579993 -0.1747774268 0)
(-0.03056927624 -0.1186040327 0)
(-0.002618216854 -0.04075064295 0)
(-0.001286225792 0.04070740411 0)
(-0.01265617838 0.09689542925 0)
(-0.03017403195 0.1317345851 0)
(-0.05100287557 0.1507588332 0)
(-0.07288208064 0.1583135226 0)
(-0.09482633069 0.1573195705 0)
(-0.1164407595 0.1492512361 0)
(-0.1375546163 0.1344347543 0)
(-0.1579901416 0.1124538015 0)
(-0.1773788618 0.08256534348 0)
(-0.1949899381 0.04411857019 0)
(-0.2095631724 -0.00297639704 0)
(-0.2191580693 -0.05765815694 0)
(-0.2210653415 -0.1169300057 0)
(-0.2119329661 -0.1749051142 0)
(-0.1883963998 -0.2218753998 0)
(-0.148686053 -0.2441861277 0)
(-0.09569111858 -0.2267787246 0)
(-0.04125193714 -0.1612019539 0)
(-0.00398896483 -0.05818116876 0)
(-0.001343676302 0.04737453622 0)
(-0.01294508713 0.1117088124 0)
(-0.03013881875 0.1508281546 0)
(-0.0499612553 0.1715729416 0)
(-0.07007828191 0.1794581131 0)
(-0.08966004695 0.1781967627 0)
(-0.1085709313 0.1696942785 0)
(-0.1269604962 0.1544272804 0)
(-0.1450286932 0.1319134344 0)
(-0.1628462208 0.1011557528 0)
(-0.180177452 0.06105926301 0)
(-0.1962761006 0.01088253015 0)
(-0.2096316431 -0.04916771831 0)
(-0.2176885113 -0.1170607804 0)
(-0.2166480925 -0.1876594319 0)
(-0.2016766378 -0.2510079064 0)
(-0.1682481507 -0.2907547969 0)
(-0.1157401981 -0.2848935042 0)
(-0.0543117191 -0.2140725994 0)
(-0.006026790565 -0.08187446274 0)
(-0.001542948217 0.05433055556 0)
(-0.01370858809 0.1264416086 0)
(-0.03036485211 0.1690164492 0)
(-0.04837191117 0.1904908564 0)
(-0.06537445053 0.1978251908 0)
(-0.08082199574 0.1956676125 0)
(-0.09494182107 0.1864269483 0)
(-0.1082741257 0.1707882356 0)
(-0.1214526119 0.1482723744 0)
(-0.1350566587 0.1177104055 0)
(-0.1494616306 0.0776395911 0)
(-0.1646405758 0.02669410587 0)
(-0.1798643534 -0.03588376361 0)
(-0.1932644607 -0.1094197408 0)
(-0.2012783471 -0.1903724087 0)
(-0.1982319038 -0.2699488097 0)
(-0.1769190546 -0.3307598197 0)
(-0.132002142 -0.3442950793 0)
(-0.06887282008 -0.2763200511 0)
(-0.008982043804 -0.1133765468 0)
(-0.00208546604 0.06209031 0)
(-0.01576902102 0.1413630811 0)
(-0.03193174303 0.1858665318 0)
(-0.04726851529 0.206380424 0)
(-0.05958726682 0.2117471304 0)
(-0.06887560849 0.2076822529 0)
(-0.07589853592 0.1971159995 0)
(-0.08167210657 0.180956605 0)
(-0.08729211897 0.1587808896 0)
(-0.09385058943 0.1293467272 0)
(-0.1023494063 0.09096246261 0)
(-0.1135591597 0.04178720024 0)
(-0.1277548443 -0.01981345541 0)
(-0.1442344401 -0.0946534205 0)
(-0.1605082863 -0.181439588 0)
(-0.1711885108 -0.2741041934 0)
(-0.1673183751 -0.3568362512 0)
(-0.1385706705 -0.397163508 0)
(-0.08261845108 -0.3440976712 0)
(-0.01307771303 -0.1538489958 0)
(-0.003327205499 0.07182958448 0)
(-0.02046399191 0.1572951469 0)
(-0.03635806231 0.2010491906 0)
(-0.04786041282 0.2179228191 0)
(-0.05345609229 0.2192861239 0)
(-0.05416492511 0.2119596739 0)
(-0.0515575851 0.1992816232 0)
(-0.04722312024 0.1823008907 0)
(-0.04271495474 0.1606430396 0)
(-0.03957246975 0.1330641939 0)
(-0.0393300998 0.09780023683 0)
(-0.0434733051 0.05277265582 0)
(-0.0532847956 -0.004235353064 0)
(-0.06946772551 -0.07528792661 0)
(-0.09132386593 -0.1614976321 0)
(-0.1151589427 -0.2607442633 0)
(-0.1321137635 -0.3619097484 0)
(-0.128016644 -0.4333803807 0)
(-0.09111258267 -0.4095971963 0)
(-0.01818691511 -0.2032380821 0)
(-0.005763405383 0.08586381083 0)
(-0.02963231642 0.1756849578 0)
(-0.04505097686 0.2139542978 0)
(-0.05032032471 0.2231348255 0)
(-0.04591187515 0.2178609194 0)
(-0.03474081538 0.2057717934 0)
(-0.01951397388 0.1902428352 0)
(-0.002453366381 0.1722241115 0)
(0.01449664605 0.1512828419 0)
(0.0294895721 0.1261897787 0)
(0.04064663331 0.09523098777 0)
(0.04598389102 0.05634028395 0)
(0.04343188311 0.007129935951 0)
(0.03100613338 -0.05513961581 0)
(0.007355656901 -0.1334521649 0)
(-0.02669724126 -0.2299150781 0)
(-0.06485854571 -0.3408173104 0)
(-0.09192279954 -0.4420249762 0)
(-0.08724480029 -0.4610605117 0)
(-0.02313581047 -0.2596409397 0)
(-0.009930702895 0.1091830701 0)
(-0.04469379948 0.1982800347 0)
(-0.05648166758 0.2222189126 0)
(-0.04918281075 0.2179075776 0)
(-0.02854500579 0.203177962 0)
(-0.0005293444791 0.1852898987 0)
(0.03094451124 0.1668145534 0)
(0.06321876973 0.1481487224 0)
(0.09422843193 0.1285875848 0)
(0.1221054047 0.1068717664 0)
(0.1449139731 0.08142123954 0)
(0.1604884736 0.05038590672 0)
(0.1663371331 0.01159140187 0)
(0.1596281631 -0.03768155039 0)
(0.1373426625 -0.101166548 0)
(0.09712678748 -0.1840883711 0)
(0.04041141741 -0.2911437678 0)
(-0.02096305198 -0.4126146926 0)
(-0.06110919083 -0.4833265662 0)
(-0.02505948893 -0.3191581966 0)
(-0.01759931092 0.1526004809 0)
(-0.06170380229 0.2239565376 0)
(-0.05413202363 0.2165579899 0)
(-0.01834286741 0.1924362899 0)
(0.02894589981 0.1676061804 0)
(0.07956388691 0.1452528715 0)
(0.1298113051 0.1257276625 0)
(0.1776286597 0.1083461792 0)
(0.2215728458 0.09193777318 0)
(0.2603165611 0.07519499778 0)
(0.2923158913 0.05677729481 0)
(0.3156354298 0.03520789 0)
(0.3278010399 0.008824899811 0)
(0.3257118045 -0.0244835604 0)
(0.3054884928 -0.06793103753 0)
(0.262401626 -0.1274543353 0)
(0.1920696682 -0.2139671139 0)
(0.09708659305 -0.3362540485 0)
(0.0008101143413 -0.4550329868 0)
(-0.01679078142 -0.3668364176 0)
(-0.02388208868 0.209010267 0)
(-0.03731099465 0.2312224984 0)
(0.03763705701 0.1767190461 0)
(0.1245193569 0.1362204889 0)
(0.2038051812 0.1077364154 0)
(0.2742033824 0.08650041531 0)
(0.3365824396 0.07035870694 0)
(0.3914827067 0.05766103042 0)
(0.43916788 0.04694398327 0)
(0.4794250767 0.03702375868 0)
(0.5117616844 0.02688611069 0)
(0.5350166389 0.01558137276 0)
(0.5471774787 0.002143950277 0)
(0.5454448592 -0.01458859986 0)
(0.5258281834 -0.03659055358 0)
(0.4826433445 -0.06782995349 0)
(0.4074627529 -0.1183042709 0)
(0.2882301314 -0.2090686062 0)
(0.1315120801 -0.3382715988 0)
(0.03765839494 -0.3398088379 0)
(0.2420655461 0.1093518416 0)
(0.3141557316 0.09742327998 0)
(0.4453709769 0.05705180233 0)
(0.5505585376 0.03500245041 0)
(0.6244172171 0.02349050211 0)
(0.6790199785 0.01638791622 0)
(0.7217907594 0.0116555576 0)
(0.756084444 0.008423868588 0)
(0.7836312251 0.006093729649 0)
(0.8053224417 0.004227238768 0)
(0.821373093 0.002486520991 0)
(0.8313897383 0.0006284520662 0)
(0.8344418355 -0.001536175116 0)
(0.8290200856 -0.004159571964 0)
(0.8126845904 -0.007566359974 0)
(0.7813258831 -0.01247605464 0)
(0.7263349638 -0.02098209381 0)
(0.6304990048 -0.03802325742 0)
(0.459447761 -0.08601164107 0)
(0.3048022229 -0.1258181129 0)
)
;

boundaryField
{
    movingWall
    {
        type            fixedValue;
        value           uniform (1 0 0);
    }
    fixedWalls
    {
        type            fixedValue;
        value           uniform (0 0 0);
    }
    frontAndBack
    {
        type            empty;
    }
}


// ************************************************************************* //
