/*--------------------------------*- C++ -*----------------------------------*\
  =========                 |
  \\      /  F ield         | OpenFOAM: The Open Source CFD Toolbox
   \\    /   O peration     | Website:  https://openfoam.org
    \\  /    A nd           | Version:  13
     \\/     M anipulation  |
\*---------------------------------------------------------------------------*/
FoamFile
{
    format      ascii;
    class       volVectorField;
    location    "15";
    object      U_0;
}
// * * * * * * * * * * * * * * * * * * * * * * * * * * * * * * * * * * * * * //

dimensions      [0 1 -1 0 0 0 0];

internalField   nonuniform List<vector> 
400
(
(1.053935948e-05 -3.710514291e-05 0)
(-0.0006650723575 0.000412302557 -1.550282535e-23)
(-0.002179305333 0.0009176970141 0)
(-0.004035326329 0.001308529413 0)
(-0.005952668505 0.001529931606 6.782597325e-25)
(-0.007737576129 0.001564577173 4.13686248e-24)
(-0.00925466552 0.001418864627 -7.142541239e-24)
(-0.01040317443 0.001116177152 7.77897479e-24)
(-0.01110323831 0.0006940705316 -2.1178248e-25)
(-0.01129490434 0.0002027137554 -4.030780586e-24)
(-0.01094306196 -0.0002990786593 5.846532798e-24)
(-0.01004896162 -0.0007452638454 -5.967345275e-23)
(-0.008663136922 -0.00107281758 -6.597833155e-23)
(-0.006893256548 -0.001230506593 -7.835665187e-23)
(-0.00490790162 -0.001190957441 4.610877713e-24)
(-0.002929814271 -0.000961543461 -4.182251772e-24)
(-0.001211233313 -0.0005922319747 -2.032474705e-22)
(-2.550586651e-05 -0.0001719230864 0)
(0.0005135454343 0.0001696038638 1.679568962e-25)
(0.0002215712284 0.000304344637 -4.805081024e-24)
(-0.0002624873547 0.0008273774423 1.370277988e-25)
(-0.002693793031 0.003372845986 1.560517951e-23)
(-0.006881780105 0.005584515122 1.560126064e-25)
(-0.01190757613 0.006982599321 -8.437680284e-25)
(-0.01707090717 0.007526329322 1.152101712e-24)
(-0.02189398496 0.007268464517 1.287857386e-23)
(-0.02601602376 0.006300880718 1.580529438e-24)
(-0.02916257663 0.004740173436 -7.522386423e-24)
(-0.03112106582 0.002731470844 1.029133348e-23)
(-0.03173963646 0.000455292628 4.551180187e-24)
(-0.03093415865 -0.001873176892 -6.365440076e-24)
(-0.02871347305 -0.004005936109 2.931044245e-24)
(-0.02520884727 -0.00568788466 3.916069703e-23)
(-0.02068814953 -0.006686812445 -1.974168335e-24)
(-0.01556400661 -0.006836678993 3.796861968e-24)
(-0.01037494597 -0.006085814593 -9.910931802e-23)
(-0.005730912595 -0.004541805522 9.816764858e-23)
(-0.002238962645 -0.002509860378 -4.296673212e-25)
(-0.0001869265901 -0.0005091199564 4.404912059e-25)
(8.267253056e-05 0.000604561236 0)
(-0.0004169390065 0.002925254758 -2.884027385e-25)
(-0.004628781372 0.008771024096 1.671706365e-23)
(-0.01132537706 0.01318926746 -8.420864972e-24)
(-0.01924881349 0.01573103485 -2.063889391e-25)
(-0.02736411827 0.01646751205 2.027500339e-25)
(-0.03497995214 0.01558786599 1.16884793e-26)
(-0.04155393691 0.01331539942 -1.405877107e-24)
(-0.04666238955 0.009891565552 -4.684595522e-25)
(-0.04997161406 0.005593143475 -1.077609967e-23)
(-0.05123771499 0.0007545953693 0)
(-0.05031551636 -0.004214140156 0)
(-0.04719454201 -0.008845718863 2.694284584e-23)
(-0.04204197078 -0.01263189956 2.838237058e-23)
(-0.03522521761 -0.01508435009 -1.66763523e-24)
(-0.02732904409 -0.01581520728 4.926485721e-23)
(-0.01913447513 -0.01463768423 9.584304243e-23)
(-0.01154507749 -0.0116729034 4.177157971e-23)
(-0.005461829563 -0.007445506776 4.825486974e-25)
(-0.001452595722 -0.002942238301 7.099234739e-26)
(-9.074274869e-05 0.0002180378767 0)
(-0.000499965474 0.006022234646 -4.195735651e-23)
(-0.006374968231 0.01630558172 -1.661761346e-23)
(-0.01546893955 0.02346507333 8.346317162e-24)
(-0.02616943117 0.02733339912 0)
(-0.03713515725 0.02821290293 0)
(-0.04750047254 0.0264916942 0)
(-0.05657713796 0.02255672333 -5.237732069e-26)
(-0.06381471598 0.01678987434 -1.958181074e-24)
(-0.06876305531 0.009607981603 0)
(-0.07106353284 0.001509535411 1.697821447e-24)
(-0.07047759582 -0.006888419733 2.844036761e-25)
(-0.06692250141 -0.0148581147 -2.851997447e-25)
(-0.06052182274 -0.02157958634 0)
(-0.05166582982 -0.02622302907 4.212552364e-23)
(-0.04104548244 -0.02807339453 -4.760063638e-23)
(-0.02965066435 -0.02670235578 -2.864854093e-23)
(-0.01869823232 -0.02216734957 -4.165795772e-23)
(-0.009471075625 -0.01519719828 7.765095484e-25)
(-0.002973124439 -0.00729768349 9.516860792e-23)
(-0.0002314086287 -0.000873767359 0)
(-0.0005289852424 0.01005421029 4.216152373e-23)
(-0.007949262399 0.02584627555 4.821221934e-25)
(-0.01931550513 0.03628166836 -4.71102485e-25)
(-0.03268933804 0.04169027207 0)
(-0.04646066013 0.042732681 7.738026491e-25)
(-0.05962026246 0.04005820209 -7.63068743e-25)
(-0.07136427854 0.03423750121 3.634421395e-23)
(-0.08103358643 0.0257883618 1.805270086e-23)
(-0.08805924491 0.01525124112 6.077350316e-24)
(-0.09194801145 0.003271596174 -1.699797575e-24)
(-0.09230962361 -0.009338456605 0)
(-0.08890516841 -0.02156907863 4.487920349e-25)
(-0.0817228351 -0.03223654526 1.055850699e-23)
(-0.07107252801 -0.04007031768 -4.43403933e-23)
(-0.0576685595 -0.04388247627 1.99242195e-24)
(-0.04267917076 -0.04282962818 4.430915467e-23)
(-0.02768887712 -0.03674628326 -4.193331948e-25)
(-0.01451800484 -0.02647753193 0)
(-0.004849309293 -0.0140691971 5.407905361e-23)
(-0.0003630404979 -0.002850788614 -2.531418014e-22)
(-0.0005248908877 0.01493782047 9.852375496e-23)
(-0.009340078489 0.03723793772 -4.925296946e-25)
(-0.02279162576 0.05149580382 0)
(-0.03868108999 0.05871407955 0)
(-0.05517943773 0.06003406518 -8.698899101e-23)
(-0.07117007437 0.05642520119 -8.452544293e-23)
(-0.0857658833 0.04865216058 -4.02553787e-23)
(-0.09821995379 0.03734577735 -1.479552225e-23)
(-0.1078462626 0.02312741858 -5.224797314e-24)
(-0.1139922159 0.006739898343 -8.043464192e-24)
(-0.1160615607 -0.01084390217 6.451574242e-24)
(-0.1135723398 -0.02835038997 8.536015942e-24)
(-0.1062602557 -0.04419449319 -1.876508914e-23)
(-0.09422205246 -0.05655741518 3.356893343e-24)
(-0.0780718993 -0.06358675705 0)
(-0.05908481719 -0.06375880105 -1.690352811e-23)
(-0.03924669718 -0.05640011694 1.569443262e-26)
(-0.02109280866 -0.04226961581 0)
(-0.007301843716 -0.02394377042 -1.490144524e-22)
(-0.0005198937729 -0.005922473148 5.984823459e-22)
(-0.0004974120305 0.02056259487 -9.785132226e-23)
(-0.01049190831 0.05025398547 2.826468982e-22)
(-0.02573880969 0.06885755603 1.523297889e-22)
(-0.04387006175 0.07820030258 3.60735457e-24)
(-0.06289644192 0.08001200594 -7.290080821e-23)
(-0.08163934142 0.07563370293 8.993468099e-23)
(-0.09916837881 0.06602574261 -3.568376512e-24)
(-0.1146801683 0.05189449698 -1.712673813e-24)
(-0.1273883624 0.03387701568 2.498381491e-24)
(-0.1364755009 0.01273313703 7.260291454e-24)
(-0.1411039214 -0.01048354893 -6.358604474e-24)
(-0.1404748015 -0.03429181695 -9.467653434e-24)
(-0.1339535818 -0.05670933148 -3.244806777e-23)
(-0.1212640033 -0.07528372865 -3.443967624e-23)
(-0.1027355707 -0.08728503441 5.19876619e-25)
(-0.0795878193 -0.09015173045 0)
(-0.05414868492 -0.08224665657 0)
(-0.02980669792 -0.06383970121 -2.852941389e-24)
(-0.01063927631 -0.03791786586 2.916223489e-24)
(-0.0007328395706 -0.01048729843 1.023748717e-22)
(-0.0004472147855 0.02676893922 0)
(-0.01131608472 0.06456186496 1.995169613e-22)
(-0.02793407849 0.08797089312 8.930962176e-23)
(-0.0478601205 0.09977020262 0)
(-0.06901121984 0.1023670197 1.563751934e-22)
(-0.09019759714 0.09751862818 0)
(-0.1104939237 0.08637956984 -1.420412877e-22)
(-0.1290870874 0.06968840854 6.473435159e-24)
(-0.1451327589 0.04801950049 0)
(-0.1576798243 0.02204475997 0)
(-0.1656582761 -0.007221134252 -1.359019965e-24)
(-0.1679232758 -0.03819800188 -9.161432292e-25)
(-0.1633844033 -0.06858667751 1.471490006e-22)
(-0.1512313657 -0.09528643316 -4.681971564e-23)
(-0.1312669332 -0.1145147838 -2.50195528e-24)
(-0.1043653014 -0.1222653996 1.479712987e-24)
(-0.07295743032 -0.115288043 -1.503061627e-24)
(-0.04127213013 -0.09263654665 0)
(-0.01522245326 -0.05729859673 3.17105539e-24)
(-0.001041534107 -0.01711948696 -1.004123664e-21)
(-0.000374963923 0.0333427773 0)
(-0.01172557027 0.07970578037 -1.126238818e-22)
(-0.02914359156 0.1082651412 -6.173620792e-22)
(-0.05020722008 0.1228182514 -3.743160013e-22)
(-0.07280550806 0.1265197435 0)
(-0.09578836061 0.1215854108 4.101448384e-22)
(-0.1182894283 0.1093689389 1.253876532e-22)
(-0.1395485412 0.09060641531 -5.546905607e-24)
(-0.1587368879 0.06573584554 5.519450546e-24)
(-0.1748504656 0.03523019418 0)
(-0.1866579732 -8.008301532e-05 2.892633397e-23)
(-0.19272444 -0.03869459387 4.653408804e-24)
(-0.1915008886 -0.0781634927 -1.064693792e-22)
(-0.1815278807 -0.1148571066 7.892103153e-23)
(-0.1618270731 -0.1439001497 -2.392691311e-22)
(-0.1325160123 -0.1594943884 0)
(-0.09563825383 -0.1559854777 0)
(-0.05593085232 -0.1300440709 0)
(-0.02144376639 -0.0836581208 0)
(-0.001497104721 -0.02661024281 5.526475847e-22)
(-0.0002891957395 0.04002982557 0)
(-0.01168139089 0.09512716638 -3.483322797e-22)
(-0.02920787424 0.1289991498 8.907133559e-22)
(-0.05054144577 0.1464875635 3.60545615e-22)
(-0.07359970688 0.1515494814 0)
(-0.09731985547 0.1469052397 -3.845744118e-22)
(-0.1209501727 0.1341296036 -3.159467588e-23)
(-0.1438572391 0.1139467454 3.317349083e-22)
(-0.1653274279 0.08661193165 1.760661092e-22)
(-0.184432133 0.05230790655 -4.039418298e-23)
(-0.1999383243 0.01153331914 1.652039646e-23)
(-0.2102692996 -0.03450842875 -8.210278961e-24)
(-0.2135312039 -0.08348333842 3.352159066e-22)
(-0.2076376123 -0.1315330708 0)
(-0.1906503123 -0.1728931196 2.393847306e-22)
(-0.1614786444 -0.1998635903 5.694192001e-24)
(-0.1210415497 -0.2036386256 -5.779116313e-24)
(-0.07376706481 -0.1769044633 1.523276955e-22)
(-0.02968079943 -0.1186659735 -5.361446924e-24)
(-0.002175832545 -0.03998950011 0)
(-0.0002147904002 0.04658254849 0)
(-0.01125257706 0.1102311164 0)
(-0.0281529748 0.1493118627 -5.008420663e-22)
(-0.0487295542 0.1696914324 -1.875474568e-23)
(-0.07097124472 0.1761832754 2.03101917e-23)
(-0.09395157836 0.1720686027 -2.007038027e-23)
(-0.1170907896 0.1591888515 -2.30690786e-23)
(-0.1399603452 0.1382839375 -3.015387231e-22)
(-0.162074682 0.1094271486 6.684388903e-23)
(-0.1827398 0.072468663 4.489890026e-23)
(-0.2009297852 0.02746401478 -4.553390449e-23)
(-0.2151733875 -0.02488574006 0)
(-0.2234984763 -0.08270953848 -7.75708537e-23)
(-0.2233967735 -0.1423927035 0)
(-0.2119906575 -0.1978051927 -3.719701e-22)
(-0.186658247 -0.2396764874 5.210366806e-22)
(-0.146360607 -0.2556824363 0)
(-0.09387997603 -0.2327769166 -1.46956774e-22)
(-0.04018541156 -0.1637238837 1.912362461e-22)
(-0.003197153789 -0.05852605501 -3.386423068e-22)
(-0.0002056857674 0.05284784963 0)
(-0.01069089733 0.1245067827 9.160128506e-22)
(-0.02631740332 0.1683250484 -2.434303026e-23)
(-0.04505410963 0.1911893596 9.169187344e-22)
(-0.06499580421 0.1988536603 -2.504718147e-23)
(-0.08542207517 0.1952320893 2.828922481e-23)
(-0.1059935354 0.1824987193 -2.80309869e-23)
(-0.1265647566 0.1614721307 -1.654570401e-23)
(-0.1469829758 0.1320976527 -5.240313093e-22)
(-0.1669395866 0.09392051381 -8.872291831e-24)
(-0.1858311261 0.04652098012 9.623604878e-24)
(-0.2025802344 -0.01004629561 3.302448539e-22)
(-0.2155092429 -0.07474431481 -5.799276957e-22)
(-0.2220950633 -0.1447276685 0)
(-0.2188483558 -0.2143329347 8.849259602e-22)
(-0.2016374552 -0.2736298359 -4.908381607e-22)
(-0.1668465023 -0.3071999887 -1.561920421e-23)
(-0.1139901633 -0.2950288158 0)
(-0.05285945447 -0.2193180262 -1.865420997e-22)
(-0.004745428536 -0.0836704993 3.335917423e-22)
(-0.0003691307856 0.05890977589 1.547226324e-23)
(-0.01052899129 0.1377043097 -8.742497021e-22)
(-0.02448221599 0.1852916168 -1.154522425e-21)
(-0.0403680056 0.2097093464 -8.606332013e-22)
(-0.05643617399 0.2178217144 0)
(-0.0723021473 0.2142650224 3.503250399e-23)
(-0.08796826107 0.2016130307 -7.272428588e-23)
(-0.1036534381 0.1808371436 5.849356518e-23)
(-0.1196148139 0.1518407773 3.010819152e-22)
(-0.136025234 0.1139526388 -1.124647547e-23)
(-0.1528501651 0.06633331009 0)
(-0.1696944224 0.008359383138 -3.592201267e-22)
(-0.1855069164 -0.0599309973 7.495245083e-22)
(-0.1982509234 -0.1370122869 8.81113337e-22)
(-0.2045213216 -0.2186367365 -5.277365603e-22)
(-0.1992135989 -0.2956573775 5.147287013e-22)
(-0.1761220128 -0.3510749962 1.069617912e-23)
(-0.1301045764 -0.3580890597 -1.086795439e-23)
(-0.06687955924 -0.2840637246 -8.425704997e-23)
(-0.007080496569 -0.1168827043 0)
(-0.000914964755 0.06530940014 -1.907402784e-23)
(-0.01172176998 0.1500413057 -1.324463405e-21)
(-0.02398785788 0.1997267118 1.091850656e-21)
(-0.03616518319 0.2240408918 6.721935704e-22)
(-0.04677216341 0.2312900612 6.00233959e-22)
(-0.05601008838 0.2269251289 6.629165252e-22)
(-0.06438572811 0.2139460309 -4.446947763e-23)
(-0.07257647792 0.1935157673 -3.453060443e-22)
(-0.08129203616 0.1655667876 2.14704919e-22)
(-0.09120822297 0.1293228517 0)
(-0.1028972346 0.08365394348 0)
(-0.1167014206 0.02737362894 2.65050527e-22)
(-0.132484036 -0.04041617658 8.211203344e-23)
(-0.149223351 -0.1197933309 -2.811126777e-22)
(-0.1643848523 -0.2087007152 -5.400798002e-23)
(-0.1729877653 -0.3004578017 1.30505807e-22)
(-0.1671647698 -0.3790740669 -3.389623294e-22)
(-0.136595308 -0.4133774585 -1.682915136e-23)
(-0.08019659691 -0.3535947811 8.414192415e-23)
(-0.01050679294 -0.1592979719 -6.045054728e-22)
(-0.002265892715 0.07342609652 0)
(-0.01585778982 0.1624687692 2.142102021e-21)
(-0.02677138486 0.2115179309 0)
(-0.03441303484 0.2330797095 -1.349499084e-21)
(-0.03784604062 0.2374672262 6.20037699e-23)
(-0.03830139957 0.2309910058 -6.179247211e-22)
(-0.03702666781 0.2169970761 -4.746665256e-22)
(-0.0352628383 0.1967902247 8.282998288e-22)
(-0.03417875865 0.1703167665 -1.88116509e-22)
(-0.03489497456 0.1367819871 0)
(-0.03850845004 0.09491717168 0)
(-0.04603032923 0.04320306537 2.419130242e-23)
(-0.05826872295 -0.01995815249 -5.997485125e-22)
(-0.07547828536 -0.09602540583 -4.302763733e-22)
(-0.09674509373 -0.1853803384 4.633744893e-22)
(-0.1185877661 -0.2851849801 -6.47672235e-22)
(-0.1334500848 -0.3836590295 9.065056816e-23)
(-0.1266403789 -0.4502461456 3.030384482e-23)
(-0.0890278822 -0.4196667448 5.664006704e-22)
(-0.01527123622 -0.211068342 6.033663377e-22)
(-0.005185539133 0.08594886398 0)
(-0.02531110945 0.1765103479 1.466912504e-22)
(-0.03496249316 0.2204013903 -4.910623155e-23)
(-0.03660604821 0.2352485709 7.631368492e-22)
(-0.03046239533 0.2341004725 -6.993900319e-22)
(-0.01950349501 0.2239519951 4.738317443e-23)
(-0.005991390399 0.2082007286 -1.018183143e-22)
(0.008167218605 0.188042425 -3.382979403e-22)
(0.02138193251 0.1633811738 2.059358664e-22)
(0.03221612905 0.1333790123 0)
(0.03918849528 0.09674588987 0)
(0.04079833417 0.05187709122 -2.898617385e-22)
(0.03543976934 -0.003107665906 0)
(0.02166786448 -0.07043841076 -5.508780997e-22)
(-0.001542086515 -0.1524421221 -1.469763507e-23)
(-0.03333799001 -0.2504782771 2.557837459e-23)
(-0.06927882108 -0.3598215874 2.198097519e-22)
(-0.09240035146 -0.4574329732 4.802349731e-24)
(-0.08723048823 -0.4696902045 -5.793382095e-22)
(-0.02103646344 -0.2698171317 0)
(-0.01111877584 0.1085946097 0)
(-0.04253449808 0.1946590726 -8.83809511e-22)
(-0.04806782698 0.2257033573 -5.407010669e-22)
(-0.0393829804 0.2280563748 4.540477027e-22)
(-0.01903786173 0.2180645254 -1.715139222e-24)
(0.00734380916 0.2026700615 -4.555988282e-23)
(0.03631725959 0.184648733 5.687967173e-22)
(0.0654424186 0.1646452013 -2.762540209e-23)
(0.09287566433 0.1423009527 -2.06624191e-22)
(0.1170033183 0.1166658564 3.137825063e-23)
(0.136182184 0.08648985748 -3.421813668e-23)
(0.1486327509 0.05028106613 -3.687315122e-23)
(0.1522299496 0.006274031036 3.203373755e-22)
(0.1446777883 -0.04785092541 6.115982837e-22)
(0.1232925702 -0.1152108515 -5.09909575e-22)
(0.0861512643 -0.2003454079 -1.617044338e-22)
(0.03182966894 -0.3067233748 1.529143935e-22)
(-0.02373652026 -0.4239260903 7.292925266e-23)
(-0.06497082765 -0.4870958014 1.912963225e-21)
(-0.02510615509 -0.3291032641 2.954623216e-21)
(-0.02004514187 0.146087965 -4.387690993e-23)
(-0.06418500652 0.2112859929 4.41485517e-23)
(-0.05076947663 0.2176791662 9.996359339e-22)
(-0.01946669818 0.2013825192 -8.125827301e-24)
(0.02395646562 0.1808059004 0)
(0.07129542243 0.1605949305 4.359283962e-23)
(0.1187810032 0.1415711296 -2.270999858e-22)
(0.164159937 0.1232688198 -9.015742917e-23)
(0.2058978836 0.1047973054 3.675449829e-23)
(0.2426439611 0.0850906378 -1.699257612e-23)
(0.2729213425 0.06300854763 3.425862156e-23)
(0.2949866463 0.03732863585 -6.586668198e-23)
(0.3064646797 0.00660879874 -9.295596606e-23)
(0.3047778727 -0.0308067243 1.516617607e-22)
(0.2862342121 -0.07780402585 0)
(0.2469298512 -0.1398893757 1.506847183e-22)
(0.1809894008 -0.2266116248 2.559339169e-22)
(0.09596766859 -0.3443667157 0)
(-0.006736857538 -0.4551968152 -3.675015317e-21)
(-0.0192305114 -0.3777313583 -2.892259908e-21)
(-0.02591480806 0.227698895 -9.512825279e-22)
(-0.0399757844 0.2238326881 -1.388542115e-22)
(0.03655301004 0.1810487822 -2.334256414e-22)
(0.1090082105 0.1450754301 -1.192830024e-22)
(0.181632607 0.1172005921 -4.294786301e-23)
(0.2488753462 0.09623251992 9.776357971e-23)
(0.3098588792 0.07998540847 -1.407118159e-22)
(0.3644164923 0.06654151219 1.295484548e-22)
(0.4124053292 0.05448195908 -8.607866039e-23)
(0.4534050118 0.04271607611 1.13168064e-25)
(0.4865814058 0.0303443788 1.526151012e-23)
(0.5105627513 0.01656003673 7.989936502e-23)
(0.5235092835 0.0005694826956 -1.810026538e-22)
(0.5230652356 -0.01860165226 -1.616714199e-22)
(0.505148159 -0.04283888464 -4.263483859e-23)
(0.4658122836 -0.07631604823 0)
(0.3952267425 -0.1286038719 -1.844802235e-22)
(0.2915747708 -0.2208453351 8.146958906e-22)
(0.1197259395 -0.3525003513 1.631324353e-21)
(0.02670052185 -0.3775468761 2.172513011e-21)
(0.214294346 0.1347495356 9.863463615e-22)
(0.2776463837 0.09871121069 0)
(0.4316762502 0.05810704239 -2.593696399e-22)
(0.5304819924 0.03846166778 -1.741395868e-22)
(0.6016836523 0.02623029232 0)
(0.6570822744 0.01831429342 -6.005389501e-23)
(0.7014604399 0.01313178965 6.371128449e-23)
(0.7375258756 0.009539809166 -1.797488121e-23)
(0.7668493457 0.006804772335 2.881733232e-23)
(0.7901233653 0.00446766793 2.31174709e-23)
(0.8073768474 0.002226321005 0)
(0.8181982962 -0.0001437897269 -2.870237773e-23)
(0.821604531 -0.002717213169 0)
(0.8162130798 -0.005707678394 2.737217009e-23)
(0.7991221137 -0.00960844784 1.423128244e-23)
(0.7679975199 -0.01500176029 -5.797139265e-23)
(0.7106583326 -0.02502649997 -2.534657061e-22)
(0.6235201572 -0.04204437452 -6.916694378e-22)
(0.4230089111 -0.09183126212 0)
(0.2705669958 -0.1524029002 -2.119344873e-21)
)
;

boundaryField
{
    movingWall
    {
        type            calculated;
        value           uniform (1 0 0);
    }
    fixedWalls
    {
        type            calculated;
        value           uniform (0 0 0);
    }
    frontAndBack
    {
        type            empty;
    }
}


// ************************************************************************* //
