/*--------------------------------*- C++ -*----------------------------------*\
  =========                 |
  \\      /  F ield         | OpenFOAM: The Open Source CFD Toolbox
   \\    /   O peration     | Website:  https://openfoam.org
    \\  /    A nd           | Version:  13
     \\/     M anipulation  |
\*---------------------------------------------------------------------------*/
FoamFile
{
    format      ascii;
    class       vectorField;
    location    "15";
    object      U_all;
}
// * * * * * * * * * * * * * * * * * * * * * * * * * * * * * * * * * * * * * //


400
(
(1.062641428e-05 -3.704908133e-05 0)
(-0.0006649721421 0.0004123285545 -1.553908433e-23)
(-0.002179273359 0.0009177167916 0)
(-0.004035343121 0.001308549808 0)
(-0.005952723849 0.001529953801 6.783302552e-25)
(-0.007737662455 0.001564599512 4.13800257e-24)
(-0.009254774828 0.001418884723 -7.140527835e-24)
(-0.01040329802 0.001116192739 7.78372056e-24)
(-0.01110336685 0.0006940800251 -2.11829091e-25)
(-0.01129502879 0.0002027165508 -4.031533471e-24)
(-0.01094317312 -0.0002990821959 5.847411154e-24)
(-0.01004905118 -0.0007452721544 -5.968113085e-23)
(-0.008663199192 -0.001072828077 -6.598634827e-23)
(-0.006893289332 -0.001230516155 -7.836494791e-23)
(-0.004907906618 -0.001190963261 4.611365161e-24)
(-0.00292979721 -0.0009615438284 -4.182721978e-24)
(-0.001211203201 -0.0005922267019 -2.032760837e-22)
(-2.54751504e-05 -0.0001719137811 0)
(0.0005135670506 0.0001696149048 1.680783089e-25)
(0.0002215769547 0.0003043519613 -4.813555144e-24)
(-0.0002624314931 0.0008274773923 1.367489873e-25)
(-0.002693773229 0.003372936144 1.563963546e-23)
(-0.006881844451 0.005584619872 1.563457312e-25)
(-0.01190773314 0.006982717551 -8.437839888e-25)
(-0.01707115236 0.007526450472 1.152036007e-24)
(-0.02189430702 0.007268576151 1.287549844e-23)
(-0.02601640501 0.006300971521 1.588096958e-24)
(-0.02916299519 0.004740234422 -7.529507094e-24)
(-0.03112149719 0.00273149658 1.029601979e-23)
(-0.03174005613 0.0004552820478 4.552408926e-24)
(-0.0309345427 -0.001873221777 -6.366766602e-24)
(-0.02871380025 -0.004006007167 2.930524571e-24)
(-0.02520910256 -0.005687970121 3.916607275e-23)
(-0.02068832618 -0.006686898313 -1.974508864e-24)
(-0.01556410742 -0.006836751402 3.797543562e-24)
(-0.01037498289 -0.006085862502 -9.913267811e-23)
(-0.005730905148 -0.004541823022 9.818987961e-23)
(-0.002238935719 -0.002509849188 -4.300203611e-25)
(-0.0001869028712 -0.000509090422 4.408653415e-25)
(8.267623869e-05 0.0006045849277 0)
(-0.0004169178589 0.002925350097 -2.882356101e-25)
(-0.004628828527 0.008771200383 1.671021098e-23)
(-0.01132554398 0.01318950649 -8.420845613e-24)
(-0.01924911979 0.01573130747 -2.063052251e-25)
(-0.02736456128 0.01646778594 2.026730095e-25)
(-0.03498051523 0.01558811196 1.193933329e-26)
(-0.0415545934 0.01331559313 -1.413169592e-24)
(-0.0466631061 0.009891688777 -4.690470313e-25)
(-0.04997235327 0.005593185782 -1.078100063e-23)
(-0.05123844078 0.0007545546956 0)
(-0.05031619249 -0.004214255335 0)
(-0.04719513514 -0.008845892847 2.694883542e-23)
(-0.04204245771 -0.01263210925 2.838814639e-23)
(-0.03522558595 -0.0150845677 -1.668013331e-24)
(-0.02732929403 -0.01581540395 4.927802433e-23)
(-0.0191346193 -0.01463783458 9.586574045e-23)
(-0.01154513937 -0.01167299065 4.179741204e-23)
(-0.005461840868 -0.007445528303 4.83319512e-25)
(-0.001452586917 -0.002942210882 7.05946074e-26)
(-9.074211452e-05 0.000218072505 0)
(-0.0004999603053 0.006022366426 -4.195565492e-23)
(-0.006375065506 0.01630588452 -1.661108121e-23)
(-0.01546919822 0.02346549108 8.346514333e-24)
(-0.02616987538 0.02733387035 0)
(-0.03713578262 0.02821337002 0)
(-0.04750125778 0.0264921083 0)
(-0.05657804981 0.02255704518 -5.274672986e-26)
(-0.06381571258 0.01679007561 -1.951119075e-24)
(-0.06876408993 0.009608046519 0)
(-0.07106455676 0.001509461373 1.699563054e-24)
(-0.07047856313 -0.006888619593 2.84511508e-25)
(-0.06692337211 -0.01485841637 -2.853081447e-25)
(-0.06052256427 -0.02157995441 0)
(-0.05166642158 -0.02622342022 4.214010455e-23)
(-0.04104591769 -0.02807376216 -4.761343132e-23)
(-0.02965095093 -0.02670265653 -2.866355759e-23)
(-0.01869839219 -0.02216755143 -4.168413781e-23)
(-0.009471143146 -0.01519729012 7.765470974e-25)
(-0.002973137295 -0.007297683879 9.514281673e-23)
(-0.0002314098202 -0.0008737334588 0)
(-0.0005289865273 0.01005440818 4.215973446e-23)
(-0.007949394754 0.0258467454 4.818709711e-25)
(-0.01931583459 0.03628230777 -4.708649971e-25)
(-0.0326898919 0.04169098312 0)
(-0.04646143263 0.04273337768 7.733825882e-25)
(-0.05962122874 0.0400588141 -7.62659455e-25)
(-0.07136540084 0.03423797416 3.632926127e-23)
(-0.08103481736 0.02578865773 1.803796008e-23)
(-0.08806053155 0.01525133942 6.073231394e-24)
(-0.09194929946 0.003271494091 -1.701543103e-24)
(-0.09231086014 -0.009338745066 0)
(-0.08890630506 -0.02156952132 4.49034079e-25)
(-0.08172383086 -0.0322370952 1.056669881e-23)
(-0.0710733526 -0.04007091609 -4.435595905e-23)
(-0.05766919593 -0.04388305758 1.993381834e-24)
(-0.04267961764 -0.04283012809 4.433989866e-23)
(-0.02768915053 -0.03674664988 -4.198252661e-25)
(-0.01451813889 -0.02647773962 0)
(-0.004849349225 -0.01406925963 5.407811032e-23)
(-0.0003630442614 -0.002850770597 -2.531250128e-22)
(-0.0005248940305 0.01493810046 9.850323723e-23)
(-0.009340229754 0.03723860009 -4.923463585e-25)
(-0.02279199643 0.05149669231 0)
(-0.0386817103 0.05871505637 0)
(-0.05518030211 0.06003501474 -8.697117543e-23)
(-0.07117115672 0.05642603174 -8.450807889e-23)
(-0.08576714426 0.04865280295 -4.023890947e-23)
(-0.09822134416 0.0373461842 -1.47879523e-23)
(-0.1078477276 0.02312756414 -5.221155919e-24)
(-0.1139936993 0.00673977825 -8.041448618e-24)
(-0.1160630066 -0.01084427173 6.449450681e-24)
(-0.1135736948 -0.02835097215 8.5321405e-24)
(-0.1062614717 -0.04419523265 -1.876500055e-23)
(-0.09422308938 -0.05655824019 3.34046784e-24)
(-0.07807272801 -0.06358758406 0)
(-0.05908542378 -0.0637595432 -1.692020041e-23)
(-0.03924708774 -0.05640069751 1.621913298e-26)
(-0.02109301318 -0.04226998662 0)
(-0.00730191279 -0.02394393029 -1.489874651e-22)
(-0.000519900397 -0.005922484001 5.984472523e-22)
(-0.0004974140891 0.02056296412 -9.783102934e-23)
(-0.01049206099 0.05025484977 2.826086225e-22)
(-0.02573918542 0.06885870246 1.523101801e-22)
(-0.04387069331 0.0782015527 3.606751842e-24)
(-0.06289732572 0.08001321505 -7.289809692e-23)
(-0.08164045261 0.0756347591 8.991618747e-23)
(-0.09916967951 0.06602656318 -3.567800105e-24)
(-0.1146816112 0.0518950263 -1.712402437e-24)
(-0.127389895 0.03387722318 2.497982995e-24)
(-0.1364770694 0.01273301626 7.258400448e-24)
(-0.1411054717 -0.01048398156 -6.35660271e-24)
(-0.1404762803 -0.03429252221 -9.463395622e-24)
(-0.1339549385 -0.0567102496 -3.244925504e-23)
(-0.121265191 -0.07528477955 -3.441423714e-23)
(-0.1027365494 -0.08728612052 5.193506616e-25)
(-0.07958856138 -0.09015274377 0)
(-0.05414918245 -0.08224749226 0)
(-0.02980697066 -0.06384027981 -2.852496118e-24)
(-0.01063937484 -0.03791815876 2.915757277e-24)
(-0.0007328489257 -0.01048735304 1.0237366e-22)
(-0.0004472135747 0.02676939388 0)
(-0.01131622004 0.06456292086 1.995115435e-22)
(-0.02793441886 0.0879722842 8.930832098e-23)
(-0.04786070001 0.09977171182 0)
(-0.06901203819 0.1023684751 1.563552421e-22)
(-0.09019863286 0.09751989961 0)
(-0.1104951429 0.08638056306 -1.420317448e-22)
(-0.1290884476 0.06968906139 6.47288079e-24)
(-0.1451342135 0.04801977894 0)
(-0.1576813263 0.02204465612 0)
(-0.165659778 -0.007221604023 -1.358908768e-24)
(-0.1679247313 -0.03819879957 -9.160308615e-25)
(-0.1633857672 -0.06858774229 1.471343647e-22)
(-0.1512325916 -0.09528768246 -4.68209521e-23)
(-0.1312679764 -0.1145161134 -2.501459578e-24)
(-0.1043661226 -0.1222666867 1.479236831e-24)
(-0.07295800498 -0.1152891555 -1.502570641e-24)
(-0.04127245994 -0.09263736673 0)
(-0.01522257914 -0.05729905452 3.170831056e-24)
(-0.001041546022 -0.01711960008 -1.004084434e-21)
(-0.0003749580523 0.03334330195 0)
(-0.01172566996 0.07970699564 -1.126034023e-22)
(-0.02914385576 0.1082667387 -6.173185062e-22)
(-0.05020768242 0.1228199809 -3.742948358e-22)
(-0.07280617191 0.1265214088 0)
(-0.09578920906 0.1215868657 4.101254692e-22)
(-0.1182904328 0.1093700796 1.253792312e-22)
(-0.139549666 0.09060717548 -5.546672674e-24)
(-0.1587380947 0.06573619026 5.519219764e-24)
(-0.1748517173 0.03523011633 0)
(-0.1866592361 -8.056623817e-05 2.892569257e-23)
(-0.1927256817 -0.03869544444 4.653221199e-24)
(-0.1915020769 -0.0781646521 -1.064624217e-22)
(-0.1815289817 -0.1148584963 7.891379497e-23)
(-0.1618280479 -0.143901669 -2.392560512e-22)
(-0.1325168175 -0.1594959114 0)
(-0.09563884908 -0.1559868543 0)
(-0.05593121432 -0.1300451436 0)
(-0.02144391351 -0.08365876561 0)
(-0.001497118808 -0.0266104283 5.526280371e-22)
(-0.0002891846872 0.04003039503 0)
(-0.01168143936 0.09512848949 -3.483106802e-22)
(-0.02920802565 0.1290008926 8.906696222e-22)
(-0.05054173124 0.146489451 3.605251204e-22)
(-0.0736001334 0.1515512978 0)
(-0.09732041147 0.1469068247 -3.84556143e-22)
(-0.1209508358 0.134130846 -3.159368792e-23)
(-0.1438579808 0.1139475769 3.317285471e-22)
(-0.1653282196 0.08661231998 1.76063538e-22)
(-0.1844329506 0.05230784948 -4.039375843e-23)
(-0.1999391491 0.01153283848 1.652057727e-23)
(-0.2102701196 -0.03450929124 -8.21013531e-24)
(-0.2135320103 -0.08348452727 3.352115079e-22)
(-0.2076383939 -0.1315345166 0)
(-0.1906510493 -0.1728947357 2.393716344e-22)
(-0.1614793018 -0.1998652635 5.693795686e-24)
(-0.1210420789 -0.2036402055 -5.778707053e-24)
(-0.07376741619 -0.1769057633 1.523134409e-22)
(-0.02968095598 -0.1186668092 -5.360992998e-24)
(-0.002175848339 -0.03998976848 0)
(-0.0002147744927 0.04658312965 0)
(-0.01125256378 0.1102324804 0)
(-0.02815298654 0.1493136708 -5.008210625e-22)
(-0.04872961734 0.1696933963 -1.875411093e-23)
(-0.07097136966 0.1761851646 2.030963356e-23)
(-0.09395175982 0.1720702457 -2.006983412e-23)
(-0.1170910126 0.1591901318 -2.306868909e-23)
(-0.1399605894 0.1382847871 -3.015329925e-22)
(-0.1620749291 0.1094275411 6.684455102e-23)
(-0.1827400392 0.07246860594 4.489839305e-23)
(-0.2009300151 0.02746354039 -4.553344037e-23)
(-0.2151736175 -0.02488658324 0)
(-0.2234987241 -0.08271069208 -7.756817349e-23)
(-0.2233970573 -0.1423941092 0)
(-0.2119909868 -0.1978067856 -3.719652739e-22)
(-0.1866586096 -0.2396781832 5.210256907e-22)
(-0.1463609611 -0.2556841073 0)
(-0.09388025523 -0.2327783714 -1.469429758e-22)
(-0.04018555802 -0.1637248859 1.912218023e-22)
(-0.003197170673 -0.05852640938 -3.386323131e-22)
(-0.0002056658752 0.0528484048 0)
(-0.01069081817 0.124508111 9.159913939e-22)
(-0.02631726245 0.1683268296 -2.43423939e-23)
(-0.04505392655 0.1911913056 9.168994066e-22)
(-0.06499559295 0.1988555328 -2.504661802e-23)
(-0.08542183842 0.1952337085 2.828879825e-23)
(-0.1059932682 0.1824999651 -2.803056834e-23)
(-0.1265644499 0.1614729371 -1.654558876e-23)
(-0.1469826229 0.1320980021 -5.240284106e-22)
(-0.16693919 0.09392042653 -8.872252128e-24)
(-0.1858307 0.04652050412 9.623573533e-24)
(-0.202579803 -0.01004709815 3.30244033e-22)
(-0.215508847 -0.07474538367 -5.799248539e-22)
(-0.2220947504 -0.1447289495 0)
(-0.2188481656 -0.2143343853 8.849170426e-22)
(-0.2016374068 -0.2736314095 -4.908278379e-22)
(-0.1668465772 -0.3072016027 -1.561884851e-23)
(-0.113990299 -0.2950303071 0)
(-0.05285956292 -0.2193191343 -1.865279102e-22)
(-0.004745445318 -0.08367092966 3.33581939e-22)
(-0.0003691080682 0.05891026765 1.547201483e-23)
(-0.0105288491 0.137705524 -8.742292823e-22)
(-0.02448192541 0.1852932759 -1.154500942e-21)
(-0.04036757762 0.2097111774 -8.606150538e-22)
(-0.05643562729 0.2178234801 0)
(-0.07230149546 0.2142665388 3.503211297e-23)
(-0.08796751346 0.2016141756 -7.272362546e-23)
(-0.1036526007 0.1808378527 5.849320758e-23)
(-0.1196138949 0.1518410435 3.010807288e-22)
(-0.1360242493 0.113952494 -1.124645158e-23)
(-0.1528491394 0.06633281767 0)
(-0.1696933952 0.00835861984 -3.592191948e-22)
(-0.1855059372 -0.05993196121 7.495218338e-22)
(-0.198250049 -0.1370133949 8.811088869e-22)
(-0.2045206148 -0.218637961 -5.277321507e-22)
(-0.1992131083 -0.2956587069 5.147217246e-22)
(-0.1761217526 -0.3510764034 1.069572249e-23)
(-0.1301045108 -0.3580904402 -1.086748229e-23)
(-0.06687959643 -0.2840648406 -8.427537345e-23)
(-0.00708051 -0.1168831832 0)
(-0.000914940545 0.06530979554 -1.907377874e-23)
(-0.01172157457 0.1500423346 -1.324442667e-21)
(-0.02398743688 0.1997281602 1.091830437e-21)
(-0.0361645377 0.224042517 6.721831693e-22)
(-0.04677131732 0.2312916378 6.002260916e-22)
(-0.05600907016 0.2269264769 6.629098999e-22)
(-0.06438456754 0.2139470289 -4.446922905e-23)
(-0.0725751991 0.1935163482 -3.453047339e-22)
(-0.08129066582 0.1655669544 2.147045099e-22)
(-0.09120679437 0.129322643 0)
(-0.1028957806 0.08365343165 0)
(-0.1166999809 0.02737290107 2.650498434e-22)
(-0.1324826556 -0.04041703575 8.211140293e-23)
(-0.1492220847 -0.119794258 -2.81111741e-22)
(-0.1643837634 -0.2087016857 -5.400761768e-23)
(-0.1729869154 -0.3004588243 1.30503065e-22)
(-0.1671642016 -0.3790751628 -3.389519079e-22)
(-0.1365950272 -0.4133785918 -1.683971635e-23)
(-0.08019653834 -0.3535957868 8.416019857e-23)
(-0.01050679832 -0.1592984555 -6.045243893e-22)
(-0.002265868667 0.07342637053 0)
(-0.01585755862 0.1624695558 2.142069938e-21)
(-0.02677087071 0.2115190965 0)
(-0.034412228 0.2330810553 -1.349478733e-21)
(-0.03784496751 0.2374685488 6.200282121e-23)
(-0.03830010368 0.2309921398 -6.179184463e-22)
(-0.03702520738 0.2169979108 -4.746633962e-22)
(-0.03526125634 0.1967906714 8.282962752e-22)
(-0.03417709788 0.170316851 -1.88116177e-22)
(-0.03489329003 0.1367817426 0)
(-0.03850678096 0.09491666856 0)
(-0.04602871299 0.0432023919 2.419095809e-23)
(-0.05826718985 -0.01995891095 -5.997459628e-22)
(-0.07547687243 -0.09602617095 -4.302737766e-22)
(-0.09674384677 -0.1853810798 4.633695006e-22)
(-0.1185867387 -0.2851857068 -6.476623638e-22)
(-0.1334493244 -0.3836597897 9.065230933e-23)
(-0.1266399305 -0.4502469479 3.031512484e-23)
(-0.08902772799 -0.4196675354 5.664133187e-22)
(-0.01527122844 -0.2110687779 6.033851949e-22)
(-0.005185518184 0.08594900432 0)
(-0.02531087126 0.1765108583 1.466900869e-22)
(-0.03496194658 0.220402225 -4.910554185e-23)
(-0.03660517312 0.2352495871 7.631256681e-22)
(-0.03046121349 0.2341014998 -6.993806639e-22)
(-0.01950205356 0.223952887 4.738275537e-23)
(-0.005989795913 0.2082013819 -1.018169636e-22)
(0.008168923371 0.1880427804 -3.382965084e-22)
(0.02138370882 0.1633812247 2.059350921e-22)
(0.03221788039 0.1333787877 0)
(0.03919017962 0.09674545089 0)
(0.04079991386 0.05187651796 -2.898607045e-22)
(0.03544123712 -0.0031082865 0)
(0.02166920114 -0.070439023 -5.508732687e-22)
(-0.001540906528 -0.1524426773 -1.46986315e-23)
(-0.03333699654 -0.2504787702 2.557756633e-23)
(-0.06927802627 -0.3598220647 2.197974194e-22)
(-0.09239983139 -0.4574334337 4.803226923e-24)
(-0.08723027818 -0.4696907227 -5.793515793e-22)
(-0.02103644224 -0.2698174684 0)
(-0.01111876467 0.1085946274 0)
(-0.04253430227 0.1946593139 -8.837981172e-22)
(-0.04806734579 0.2257038542 -5.406936476e-22)
(-0.03938218264 0.2280570482 4.540407218e-22)
(-0.01903675853 0.2180652466 -1.715091374e-24)
(0.007345174133 0.2026707118 -4.555923474e-23)
(0.03631880107 0.1846492151 5.687915492e-22)
(0.06544406506 0.1646454931 -2.762524952e-23)
(0.09287734796 0.1423010101 -2.066234575e-22)
(0.1170049599 0.1166656999 3.137811604e-23)
(0.1361837333 0.08648953015 -3.421798419e-23)
(0.1486341742 0.05028062798 -3.687293669e-23)
(0.1522312164 0.006273548433 3.203350471e-22)
(0.1446788885 -0.04785139044 6.115927263e-22)
(0.1232935204 -0.1152112497 -5.099028525e-22)
(0.08615204664 -0.2003457203 -1.61696913e-22)
(0.03183035862 -0.3067236161 1.529228035e-22)
(-0.02373602599 -0.4239263328 7.293023442e-23)
(-0.06497063019 -0.4870960775 1.912979035e-21)
(-0.02510612812 -0.3291034787 2.954638464e-21)
(-0.02004515003 0.1460879058 -4.387653757e-23)
(-0.06418491718 0.2112860367 4.414810293e-23)
(-0.05076918684 0.2176793821 9.996213603e-22)
(-0.01946616025 0.201382883 -8.126930284e-24)
(0.02395726707 0.1808063354 0)
(0.071296469 0.1605953527 4.359223261e-23)
(0.1187822341 0.1415714653 -2.270973936e-22)
(0.1641612842 0.123269034 -9.015656975e-23)
(0.2058992762 0.1047973705 3.675423566e-23)
(0.242645324 0.08509055966 -1.699251711e-23)
(0.2729226165 0.06300835073 3.42584686e-23)
(0.2949877822 0.03732835904 -6.586624043e-23)
(0.3064656693 0.006608486927 -9.295563728e-23)
(0.3047787074 -0.03080702375 1.516595194e-22)
(0.2862348917 -0.0778042741 0)
(0.2469303924 -0.1398895462 1.506761881e-22)
(0.1809898399 -0.2266116997 2.559353214e-22)
(0.09596799677 -0.3443668118 0)
(-0.006736690796 -0.455196917 -3.675041839e-21)
(-0.01923048395 -0.3777314525 -2.892274681e-21)
(-0.02591482985 0.2276988313 -9.512800591e-22)
(-0.03997581901 0.2238326468 -1.388526942e-22)
(0.03655304719 0.1810488262 -2.334218595e-22)
(0.1090083944 0.14507556 -1.19281594e-22)
(0.1816329795 0.1172007791 -4.294692823e-23)
(0.2488759185 0.09623271887 9.77614395e-23)
(0.3098596242 0.07998557831 -1.407094775e-22)
(0.3644173623 0.06654162724 1.295470839e-22)
(0.412406265 0.05448200266 -8.607805205e-23)
(0.4534059479 0.04271604755 1.13165839e-25)
(0.4865822845 0.03034428928 1.526140635e-23)
(0.5105635285 0.01655990583 7.989878898e-23)
(0.5235099255 0.0005693433523 -1.810008428e-22)
(0.5230657235 -0.01860178764 -1.616691967e-22)
(0.505148518 -0.04283899385 -4.263304063e-23)
(0.4658125361 -0.07631611601 0)
(0.3952269274 -0.1286038925 -1.844856683e-22)
(0.2915749104 -0.2208453406 8.147015573e-22)
(0.1197260221 -0.352500355 1.631333562e-21)
(0.02670054233 -0.3775468874 2.172517053e-21)
(0.214294325 0.1347495168 9.863441085e-22)
(0.2776463178 0.09871118772 0)
(0.4316761783 0.05810703317 -2.593661363e-22)
(0.5304819648 0.03846167339 -1.74136233e-22)
(0.6016837108 0.02623030912 0)
(0.6570824383 0.01831431424 -6.005267852e-23)
(0.701460702 0.01313180756 6.3710359e-23)
(0.737526211 0.009539819402 -1.79747308e-23)
(0.7668497191 0.00680477168 2.881711852e-23)
(0.790123737 0.004467656326 2.311735536e-23)
(0.8073771819 0.002226300391 0)
(0.8181985677 -0.0001438161093 -2.87022002e-23)
(0.8216047255 -0.002717241842 0)
(0.8162131932 -0.005707699831 2.737148139e-23)
(0.7991221633 -0.009608460078 1.423046292e-23)
(0.7679975254 -0.01500176291 -5.797227568e-23)
(0.7106583215 -0.02502649364 -2.534686231e-22)
(0.6235201516 -0.04204436837 -6.916733014e-22)
(0.423008912 -0.09183125481 0)
(0.2705669973 -0.1524028966 -2.119348263e-21)
)


// ************************************************************************* //
