/*--------------------------------*- C++ -*----------------------------------*\
  =========                 |
  \\      /  F ield         | OpenFOAM: The Open Source CFD Toolbox
   \\    /   O peration     | Website:  https://openfoam.org
    \\  /    A nd           | Version:  13
     \\/     M anipulation  |
\*---------------------------------------------------------------------------*/
FoamFile
{
    format      ascii;
    class       volScalarField;
    location    "8";
    object      p;
}
// * * * * * * * * * * * * * * * * * * * * * * * * * * * * * * * * * * * * * //

dimensions      [0 2 -2 0 0 0 0];

internalField   nonuniform List<scalar> 
400
(
-1.09990214e-09
-0.0003510454251
-0.000723019952
-0.000925363795
-0.0008773003796
-0.000553670486
4.627425014e-05
0.0009088012349
0.0020061085
0.003292410943
0.004699293735
0.00613375724
0.007481801798
0.008620306465
0.009436757973
0.009855098033
0.00986210348
0.009528326243
0.00902323498
0.008608689501
0.0003516589678
-9.295855509e-06
-0.0003206463486
-0.0004651917073
-0.0003894340369
-7.829014417e-05
0.0004690415407
0.001243617149
0.002224373902
0.003373504377
0.004632067674
0.005918433224
0.007131892989
0.008163337814
0.008913209963
0.009314005411
0.009351969582
0.009082595255
0.008642270869
0.008215347206
0.0007383385892
0.0002760615276
-5.706362383e-05
-0.0001937189575
-0.0001174310665
0.0001701865121
0.0006671613248
0.001369193784
0.002263346128
0.003321210281
0.004493102338
0.005705190525
0.00686211676
0.007856672203
0.00858734409
0.008980816619
0.009013394662
0.008724703668
0.00822705998
0.007670793835
0.0009496825284
0.0003579564255
-4.140957385e-05
-0.0002069371722
-0.0001518593219
0.0001049141562
0.0005575525269
0.001206465962
0.002047904093
0.003064003625
0.004214297759
0.005430268186
0.006615649044
0.007654751822
0.008430337263
0.008848597668
0.00886480225
0.008501980108
0.00786915768
0.007124165236
0.0008523568033
0.0001239716004
-0.0003597721418
-0.0005748223625
-0.0005564606197
-0.000337648659
7.365252835e-05
0.0006841204013
0.001500953795
0.002518580498
0.003706762528
0.005001404487
0.006301361003
0.00747417664
0.008374221331
0.008872003401
0.008888749785
0.008427774908
0.007610953874
0.006626562492
0.0003480024498
-0.0005163953832
-0.001091488356
-0.001367168922
-0.001397110175
-0.001225419307
-0.0008596433317
-0.0002842126775
0.0005220632061
0.001569492519
0.002841816354
0.004281948082
0.005783836908
0.007192893319
0.008322862312
0.008989989512
0.009061175046
0.008507235938
0.007469319859
0.006184166413
-0.0006500160388
-0.00164873189
-0.00231959432
-0.002664542346
-0.002755768936
-0.00264724993
-0.002343867076
-0.001817976354
-0.001029969623
5.240822631e-05
0.001434479095
0.003074437629
0.004866981703
0.006634973287
0.008140315673
0.009120912449
0.009356206456
0.00875436548
0.007467968596
0.005800547061
-0.002225839476
-0.003358414209
-0.004130476026
-0.00455511332
-0.004726619794
-0.00470958795
-0.004504814894
-0.004069362695
-0.003339696832
-0.002252863928
-0.0007693591104
0.001099119805
0.003263787801
0.005533587739
0.007612120412
0.009130042168
0.00972829855
0.009194050365
0.007657865009
0.005508272235
-0.004465915308
-0.005732393629
-0.006612167274
-0.007129605717
-0.007408383286
-0.007526795963
-0.007481468775
-0.007211597224
-0.006623957024
-0.005614205477
-0.004091221519
-0.002012793874
0.0005775663495
0.003499519368
0.006405055985
0.008790106971
0.01008654081
0.009860401564
0.008139313426
0.005406675509
-0.007462275684
-0.008860219542
-0.009851733879
-0.01047393049
-0.01089182813
-0.01120337757
-0.01140276184
-0.01141023966
-0.01109825368
-0.01031036179
-0.00888387311
-0.006687577948
-0.003678820802
2.180931963e-05
0.004047655382
0.007749148909
0.01026724196
0.01079415922
0.009092502497
0.005718890851
-0.01131693152
-0.0128356137
-0.01393135832
-0.01465772292
-0.01523986515
-0.01580478484
-0.01634788345
-0.01677148274
-0.01691164879
-0.01655144486
-0.0154366057
-0.01331087025
-0.009989931407
-0.00545763885
-2.652207937e-05
0.005539894678
0.01002550894
0.01204862439
0.01082509179
0.006885627503
-0.01615264607
-0.0177616012
-0.01892368419
-0.01971774027
-0.02045860074
-0.02131535515
-0.02228915809
-0.02326678788
-0.02404906743
-0.02435535518
-0.02382617703
-0.02205159646
-0.01864052344
-0.01334877698
-0.006313726538
0.001691445025
0.009094225915
0.01373280822
0.01385449285
0.009723165103
-0.02214079638
-0.02376513543
-0.02488794916
-0.02563558278
-0.02645931739
-0.02758565914
-0.0290234335
-0.03064458541
-0.03221717726
-0.0333997568
-0.0337266154
-0.03261544724
-0.02942149322
-0.02358398509
-0.01490968514
-0.003987811629
0.00738569778
0.01615015146
0.01906019051
0.01568283676
-0.02956965785
-0.03103170099
-0.03186827553
-0.0323084666
-0.03301265481
-0.03427620986
-0.03610709069
-0.03835514074
-0.04075428676
-0.04290662188
-0.04424790706
-0.04402697412
-0.04133775084
-0.03523713765
-0.02505668394
-0.010941756
0.005399293846
0.02011103149
0.02796386333
0.02724185037
-0.03899879059
-0.03987569617
-0.03989213961
-0.03950790779
-0.03969558909
-0.04080766597
-0.04281713115
-0.04552681923
-0.04862289554
-0.05164810212
-0.05394896228
-0.05462424905
-0.05252120057
-0.04631534026
-0.03477916139
-0.01736040385
0.004784346382
0.02745062391
0.04318842248
0.04837994592
-0.05154502865
-0.05086319854
-0.0489491604
-0.04680216573
-0.04581839733
-0.04631875164
-0.04815379179
-0.05102402158
-0.05453153695
-0.05813745066
-0.06109224387
-0.06235863991
-0.06057125023
-0.05404962658
-0.0410158646
-0.02005997958
0.008716834165
0.04156771744
0.06904700138
0.08493877944
-0.06943285956
-0.06500642238
-0.05884558713
-0.05334292855
-0.05026949315
-0.04960194629
-0.05087657453
-0.05359017577
-0.05719195396
-0.06101359795
-0.06418329704
-0.06552077524
-0.06344792969
-0.05595322015
-0.04073965645
-0.01547134009
0.02124866462
0.06726576683
0.1120365767
0.1452812187
-0.09925370236
-0.08422448793
-0.06852005057
-0.05720290548
-0.051113913
-0.04895107819
-0.0495602579
-0.05206499971
-0.05567671395
-0.05953989652
-0.06264873776
-0.06365866878
-0.06075235657
-0.05157370676
-0.03324785701
-0.002419093453
0.04432145516
0.1081800769
0.1806033903
0.2464949709
-0.1711506237
-0.1115598727
-0.07398083985
-0.0543690691
-0.04550033651
-0.04255551942
-0.04321854968
-0.04611954636
-0.05018450457
-0.05436460379
-0.05756136067
-0.05838609953
-0.05479380932
-0.04408829632
-0.02276728645
0.01384501297
0.07215089032
0.1599904606
0.2809365456
0.4326040366
-0.3508516369
-0.1508719151
-0.06892502254
-0.04320906286
-0.03393832221
-0.03144853516
-0.0330530108
-0.03708840993
-0.04225126345
-0.04739043741
-0.05130607395
-0.05255384042
-0.0491135183
-0.03819095329
-0.01571943682
0.02456888358
0.09347387755
0.212177429
0.4121087282
0.719056427
)
;

boundaryField
{
    movingWall
    {
        type            zeroGradient;
    }
    fixedWalls
    {
        type            zeroGradient;
    }
    frontAndBack
    {
        type            empty;
    }
}


// ************************************************************************* //
