/*--------------------------------*- C++ -*----------------------------------*\
  =========                 |
  \\      /  F ield         | OpenFOAM: The Open Source CFD Toolbox
   \\    /   O peration     | Website:  https://openfoam.org
    \\  /    A nd           | Version:  13
     \\/     M anipulation  |
\*---------------------------------------------------------------------------*/
FoamFile
{
    format      ascii;
    class       volScalarField;
    location    "8";
    object      p;
}
// * * * * * * * * * * * * * * * * * * * * * * * * * * * * * * * * * * * * * //

dimensions      [0 2 -2 0 0 0 0];

internalField   nonuniform List<scalar> 
400
(
-9.613822123e-10
-0.0004977987715
-0.0007954985193
-0.0008826380488
-0.0007703292917
-0.000490150365
-7.829480074e-05
0.0004307790932
0.00100246296
0.001598666281
0.002176847147
0.002687348967
0.003077804217
0.00329706531
0.003303663202
0.003076924477
0.002630632103
0.00201811875
0.001407410824
0.0008455270474
0.0005347427881
5.863306548e-06
-0.0003128081367
-0.0004143147988
-0.0003455030849
-0.0001326448518
0.0001951525873
0.000608948869
0.001077996248
0.001565616332
0.002038522592
0.002443967966
0.002735028533
0.002866090118
0.002802941736
0.002533809709
0.002079499326
0.001498266247
0.0009427133032
0.0003198398767
0.0008521486286
0.0002667396911
-8.588923529e-05
-0.0001900845399
-0.0001412560397
3.114479144e-05
0.0003025087956
0.000650533231
0.001051239924
0.001476292426
0.001884165463
0.002234299341
0.002476186634
0.002562616851
0.002458360267
0.002150896715
0.001658916866
0.001032872231
0.0003813168336
-0.0004104900461
0.0008460687327
0.0001936777663
-0.0002026962085
-0.0003096019273
-0.0002696656925
-0.0001187846738
0.0001206827717
0.0004334202547
0.0008034248049
0.001208163501
0.001612210495
0.001970276937
0.002225849811
0.002321411915
0.002209235079
0.001864502265
0.001295028921
0.0005425314721
-0.0003134554909
-0.001393630666
0.0003599664399
-0.0003375524317
-0.0007592127336
-0.0008609468507
-0.0008233624148
-0.0006872204948
-0.0004709536942
-0.0001801073602
0.0001809173009
0.0005994211259
0.001045606473
0.001472689089
0.001813566969
0.001992011624
0.001935163605
0.001591115296
0.0009443661026
2.367594196e-05
-0.001112801968
-0.002552727415
-0.0007423806584
-0.00145825304
-0.00188910139
-0.001983594825
-0.001953976714
-0.001843239102
-0.001662522838
-0.001402999805
-0.001051453731
-0.0006035578359
-7.710172252e-05
0.0004847976417
0.001003762062
0.001377198715
0.00149070565
0.00124240913
0.0005701488189
-0.0005244138235
-0.002008847232
-0.003907256456
-0.002587532928
-0.003293841438
-0.003727721848
-0.003826693854
-0.003831816022
-0.003785753239
-0.003688245096
-0.003509828399
-0.003210465356
-0.002756598828
-0.002140793697
-0.001387479272
-0.0005799778063
0.0001496819812
0.0006260619712
0.0006620930723
0.0001062575142
-0.001102633041
-0.002982560111
-0.005452973821
-0.005282652484
-0.005957214092
-0.006398031308
-0.006531597177
-0.006625882062
-0.006721733709
-0.006804041626
-0.006815988189
-0.006679138265
-0.006313609401
-0.005665867785
-0.004698941585
-0.003494740308
-0.002201983913
-0.001072386686
-0.0004254796898
-0.0005739086294
-0.00171620399
-0.003985389564
-0.007146099058
-0.008905223631
-0.009530571653
-0.009990561926
-0.01020481346
-0.01046827528
-0.01082126738
-0.01123292596
-0.01161398777
-0.01183580126
-0.01174781012
-0.01119775499
-0.01011162785
-0.008459175485
-0.006387319789
-0.004222642523
-0.002465899886
-0.00169523904
-0.00238031747
-0.004909252517
-0.008847930703
-0.01348864129
-0.01404935014
-0.01454122843
-0.01488419082
-0.01540560326
-0.01615148225
-0.01707920011
-0.01806653559
-0.01892585502
-0.0194175771
-0.01927401547
-0.01825523449
-0.01621699162
-0.01321376775
-0.009598779239
-0.006072690468
-0.003596954895
-0.003117983461
-0.005541808992
-0.01024153901
-0.01901508182
-0.01949235542
-0.02001306081
-0.02050542595
-0.02134583493
-0.02259904824
-0.02422058284
-0.02606085491
-0.02787184635
-0.02931091595
-0.02995900484
-0.02937167181
-0.02719512078
-0.02327677882
-0.01788910356
-0.0118768327
-0.006660926635
-0.003915778336
-0.005492613603
-0.01069666023
-0.02542669265
-0.02578678589
-0.02629105238
-0.02688080184
-0.02801889946
-0.02981022941
-0.03222355111
-0.03509233364
-0.03811424425
-0.04084229053
-0.04269099827
-0.04297763222
-0.0410610034
-0.03646802875
-0.02922098593
-0.02014122971
-0.01105815957
-0.004572455222
-0.004064908339
-0.009059122379
-0.0326691296
-0.03283494925
-0.03319489368
-0.03369752163
-0.03496656854
-0.03717693737
-0.04032689522
-0.04424203363
-0.0485730655
-0.0527757604
-0.05610481112
-0.05764790123
-0.0563973171
-0.05151646557
-0.04260067777
-0.03018825925
-0.01627710142
-0.00437761218
-3.064158164e-05
-0.003357248214
-0.04079274267
-0.04057165855
-0.04051476756
-0.04054377497
-0.0415781655
-0.04389748321
-0.04753875016
-0.05231727044
-0.0578340868
-0.06345160948
-0.06827488769
-0.0711670926
-0.07081835654
-0.06595652437
-0.05566586831
-0.03995087581
-0.02059790501
-0.001660637584
0.008725104504
0.009529731404
-0.05015011507
-0.04903446822
-0.0480291236
-0.04692100551
-0.04713913406
-0.04908610301
-0.05282236947
-0.05812516253
-0.06452108602
-0.07126374515
-0.0773088934
-0.08131223428
-0.08169205827
-0.07677373251
-0.06513566229
-0.04609979871
-0.02090463048
0.006579606082
0.02564956113
0.03426362176
-0.06188038208
-0.05856832204
-0.05561389165
-0.05234546042
-0.050974145
-0.05197383955
-0.0553595678
-0.06080398976
-0.06770504989
-0.07516020089
-0.08195358544
-0.08652537753
-0.08703848639
-0.08144387319
-0.06789394371
-0.04497532026
-0.0132917821
0.02482211435
0.05590030381
0.07757714171
-0.07863719399
-0.06969730548
-0.0629435252
-0.0561213399
-0.052354771
-0.0519284716
-0.05465175059
-0.05996999744
-0.06706707268
-0.07483825926
-0.08184932902
-0.08629904989
-0.08608587301
-0.07878233643
-0.06210405199
-0.03405838057
0.005292992612
0.05842232622
0.1056198798
0.1478025696
-0.1093016771
-0.08483119461
-0.07083968254
-0.05838074488
-0.05129366464
-0.04902993406
-0.05089004923
-0.05592124391
-0.06298987627
-0.07072784938
-0.0774611085
-0.08114436148
-0.07946241551
-0.06931862413
-0.04818265655
-0.01309044238
0.03761528778
0.1064721525
0.177360733
0.2558255174
-0.1675558056
-0.09917793914
-0.07458616993
-0.0545594943
-0.04434660386
-0.04106161961
-0.04281203008
-0.04807662031
-0.05540221094
-0.063211224
-0.06966060232
-0.07253072062
-0.06907595812
-0.05652061398
-0.03104571149
0.01149397715
0.07489050921
0.1655909425
0.2753441114
0.4369309153
-0.3975681815
-0.1374432297
-0.07464190219
-0.04697758999
-0.0334247089
-0.02966984835
-0.03207086843
-0.03813607379
-0.04610787452
-0.05431741278
-0.06089840701
-0.06363895163
-0.05996748262
-0.04641969503
-0.01868010768
0.02960897362
0.1063491504
0.2326902082
0.4191195246
0.7792898479
)
;

boundaryField
{
    movingWall
    {
        type            zeroGradient;
    }
    fixedWalls
    {
        type            zeroGradient;
    }
    frontAndBack
    {
        type            empty;
    }
}


// ************************************************************************* //
