/*--------------------------------*- C++ -*----------------------------------*\
  =========                 |
  \\      /  F ield         | OpenFOAM: The Open Source CFD Toolbox
   \\    /   O peration     | Website:  https://openfoam.org
    \\  /    A nd           | Version:  13
     \\/     M anipulation  |
\*---------------------------------------------------------------------------*/
FoamFile
{
    format      ascii;
    class       volScalarField;
    location    "8";
    object      p;
}
// * * * * * * * * * * * * * * * * * * * * * * * * * * * * * * * * * * * * * //

dimensions      [0 2 -2 0 0 0 0];

internalField   nonuniform List<scalar> 
100
(
-1.1206e-08
-0.000643345
-0.000702078
0.000246702
0.00226948
0.00521596
0.00847599
0.0108542
0.0113095
0.0102493
0.000740774
-1.37019e-06
-0.000169092
0.000517408
0.00214386
0.00470533
0.00771708
0.0100379
0.0104689
0.00920987
0.000512971
-0.000467204
-0.000904477
-0.000606184
0.000617909
0.00304318
0.00639044
0.00936399
0.0101663
0.00863716
-0.0017158
-0.00296609
-0.00383287
-0.00414841
-0.00349447
-0.0011014
0.00314737
0.00785334
0.0101826
0.00920792
-0.00666891
-0.00811192
-0.00958239
-0.0109518
-0.0114741
-0.00959543
-0.004265
0.0034895
0.00962544
0.011713
-0.0149074
-0.0162278
-0.0183533
-0.0213075
-0.0239845
-0.0237503
-0.0178526
-0.00580715
0.00766817
0.0174576
-0.0267171
-0.0269938
-0.0291669
-0.0337487
-0.0392445
-0.0417349
-0.0359984
-0.0184478
0.0070004
0.0305541
-0.0427001
-0.0391863
-0.0389807
-0.0439554
-0.0514721
-0.0560105
-0.0495629
-0.0238478
0.0208245
0.0690436
-0.0711652
-0.0508849
-0.0426238
-0.0456652
-0.0533092
-0.057262
-0.0465978
-0.00675906
0.0707715
0.173841
-0.152616
-0.0627923
-0.0351091
-0.0372178
-0.0452166
-0.0475385
-0.0305871
0.0295583
0.154954
0.342803
)
;

boundaryField
{
    movingWall
    {
        type            zeroGradient;
    }
    fixedWalls
    {
        type            zeroGradient;
    }
    frontAndBack
    {
        type            empty;
    }
}


// ************************************************************************* //
