/*--------------------------------*- C++ -*----------------------------------*\
  =========                 |
  \\      /  F ield         | OpenFOAM: The Open Source CFD Toolbox
   \\    /   O peration     | Website:  https://openfoam.org
    \\  /    A nd           | Version:  13
     \\/     M anipulation  |
\*---------------------------------------------------------------------------*/
FoamFile
{
    format      ascii;
    class       surfaceScalarField;
    location    "8";
    object      phi;
}
// * * * * * * * * * * * * * * * * * * * * * * * * * * * * * * * * * * * * * //

dimensions      [0 3 -1 0 0 0 0];

internalField   nonuniform List<scalar> 
760
(
-1.321378088e-05
1.321379056e-05
-6.91043306e-05
5.589065039e-05
-0.0001539209219
8.481654805e-05
-0.0002508004585
9.687930289e-05
-0.0003475800955
9.67795143e-05
-0.0004354382083
8.785801579e-05
-0.0005077246471
7.228639074e-05
-0.0005591489624
5.142429191e-05
-0.0005855169451
2.636802557e-05
-0.0005839438519
-1.572930104e-06
-0.0005532303933
-3.071335275e-05
-0.0004946569058
-5.85733758e-05
-0.0004124430166
-8.221369656e-05
-0.000314059602
-9.838321472e-05
-0.0002100360815
-0.0001040234222
-0.0001131048036
-9.693128714e-05
-3.653684607e-05
-7.656801712e-05
8.464576308e-06
-4.500147378e-05
1.882589864e-05
-1.036132484e-05
1.882592901e-05
-6.472750831e-05
7.794117375e-05
-0.0002304223373
0.0002215854584
-0.0004616229128
0.0003160173476
-0.0007217901503
0.0003570466093
-0.0009817325986
0.0003567220248
-0.001218682341
0.0003248077587
-0.001414784936
0.0002683890062
-0.001555849116
0.0001924884695
-0.001630886867
0.0001014056472
-0.001632860685
4.007430998e-07
-0.001558621682
-0.0001049525258
-0.001411804928
-0.0002053903
-0.001202990788
-0.0002910279478
-0.0009505861185
-0.000350787968
-0.0006802605651
-0.0003743491126
-0.0004227018324
-0.0003544902002
-0.0002093437284
-0.0002899262536
-6.569944597e-05
-0.0001886457256
-3.35131097e-06
-7.270936938e-05
1.547461995e-05
-0.0001141941519
0.0001921352948
-0.0003852179848
0.0004926090159
-0.0007506702796
0.0006814695565
-0.001158246252
0.0007646225137
-0.001565948776
0.000764424494
-0.001940130824
0.0006989897436
-0.002253653437
0.0005819116653
-0.002484482519
0.000423317659
-0.002615290844
0.0002322141134
-0.002633904849
1.901495095e-05
-0.00253543137
-0.0002034258655
-0.002323303707
-0.0004175178103
-0.002011793476
-0.0006025379827
-0.001626836841
-0.0007357444819
-0.001205510435
-0.0007956755785
-0.0007930371125
-0.0007669636524
-0.0004366345161
-0.0006463288971
-0.0001762027206
-0.0004490774138
-3.353150987e-05
-0.0002153805326
-1.805689701e-05
-0.0001588547153
0.000350990142
-0.000529027241
0.0008627814532
-0.001022899528
0.001175341798
-0.001572371033
0.00131409392
-0.002124138459
0.001316191829
-0.002635623859
0.001210475048
-0.00307192414
0.001018211892
-0.003403847259
0.0007552406304
-0.003607333032
0.0004356997792
-0.003664212813
7.589476823e-05
-0.003564383929
-0.0003032546705
-0.003308229186
-0.0006736724523
-0.002909799749
-0.001000967328
-0.002398968143
-0.001246576071
-0.001821902676
-0.001372741152
-0.001238356483
-0.001350509946
-0.0007144959355
-0.00117018935
-0.0003111266024
-0.0008524465734
-6.996107405e-05
-0.0004565459904
-8.801790246e-05
-0.0002001694537
0.0005511596201
-0.0006639422708
0.001326554159
-0.001281691098
0.001793090609
-0.001970592226
0.002002995024
-0.0026675036
0.002013103175
-0.003322552637
0.001865524034
-0.003894353175
0.001590012478
-0.004346992805
0.001207880256
-0.004648941736
0.000737648761
-0.004773804036
0.0002007572166
-0.004702914065
-0.0003741444812
-0.004428802555
-0.000947783844
-0.003960140187
-0.001469629663
-0.003326109444
-0.001880606908
-0.002579399928
-0.002119450728
-0.001795428181
-0.002134481662
-0.001065229657
-0.001900387728
-0.000480669911
-0.001437006221
-0.0001147950415
-0.0008224208486
-0.0002028128691
-0.0002382092942
0.0007893689406
-0.000789126382
0.001877471203
-0.001524560215
0.002528524392
-0.002349278462
0.00282771317
-0.003192331794
0.00285615642
-0.003998417289
0.00267160942
-0.004721105863
0.002312701091
-0.005318370845
0.001805145244
-0.005750582476
0.001169860484
-0.005980917595
0.0004310925051
-0.005978284975
-0.0003767769279
-0.00572180774
-0.001204260988
-0.0052081821
-0.001983255308
-0.004459314692
-0.002629474394
-0.003529738692
-0.003049026765
-0.002510253465
-0.003153966796
-0.001523134473
-0.002887506593
-0.0007043899759
-0.002255750712
-0.0001743348058
-0.001352476028
-0.0003771476855
-0.0002715622263
0.00106093118
-0.0009000779261
0.002505986892
-0.001742448558
0.003370895012
-0.002694192913
0.003779457474
-0.003679159434
0.003841122901
-0.004638938123
0.003631388052
-0.005524021861
0.003197784877
-0.006287576534
0.00256869993
-0.00688211707
0.001764401125
-0.007259128857
0.0008081044369
-0.007372018012
-0.0002638876809
-0.007180989535
-0.001395289491
-0.006663246119
-0.002500998823
-0.0058243182
-0.003468402408
-0.00471185702
-0.004161487928
-0.003427171099
-0.004438652642
-0.002127251841
-0.004187425861
-0.001007042661
-0.003375959973
-0.000257149812
-0.002102368831
-0.0006342975238
-0.0002980463453
0.001358977524
-0.0009894150885
0.003197355582
-0.001920652758
0.004302132665
-0.00298146463
0.004840269333
-0.004093391899
0.004953050123
-0.005197643268
0.004735639381
-0.006244286561
0.004244428217
-0.00718412435
0.003508537734
-0.007963732989
0.002544009865
-0.008523705783
0.001368077321
-0.00880162246
1.402899559e-05
-0.008734224591
-0.001462687448
-0.008272806702
-0.002962416859
-0.007395419837
-0.004345789361
-0.006128916241
-0.00542799152
-0.004572135578
-0.005995433318
-0.002912144346
-0.00584741715
-0.001415251839
-0.004872852531
-0.0003734811526
-0.003144139412
-0.001007778578
-0.0003152599548
0.001674237515
-0.001048829653
0.003930925281
-0.002041761019
0.00529506403
-0.003181194563
0.005979702887
-0.004389186879
0.006161042367
-0.005609470231
0.00595592266
-0.006794987061
0.005429945023
-0.007897981782
0.00461153241
-0.008863270399
0.003509298459
-0.009624911899
0.002129718778
-0.01010506669
0.0004941836896
-0.01022222363
-0.001345530668
-0.009895235848
-0.003289404791
-0.009064454152
-0.005176571091
-0.007717867157
-0.006774578509
-0.005928460586
-0.007784839975
-0.003893898452
-0.007881979285
-0.001952998476
-0.006813752423
-0.0005350663316
-0.004562071435
-0.001542844686
-0.0003219251903
0.00199616272
-0.001072316007
0.004681316111
-0.002090735408
0.006313483422
-0.003264204548
0.007153171996
-0.004517720012
0.007414557679
-0.005800353129
0.007238555639
-0.007071581325
0.006701173125
-0.008289993708
0.005829944748
-0.009405008806
0.004624313489
-0.01035152083
0.003076230761
-0.01104728328
0.001189946094
-0.01139445417
-0.0009983598166
-0.01128509843
-0.003398760506
-0.0106160251
-0.005845644351
-0.009318184543
-0.008072419052
-0.007406299855
-0.009696724711
-0.005048888683
-0.01023939032
-0.002633400869
-0.009229240057
-0.0007545947363
-0.006440877543
-0.002297439339
-0.000319687619
0.002315850367
-0.00106059544
0.005422223907
-0.002062009394
0.007314897324
-0.003211887789
0.008303050319
-0.004440211809
0.008642881499
-0.00570414611
0.008502489782
-0.006973530204
0.007970557107
-0.008218834503
0.007075249075
-0.0094019482
0.005807427199
-0.01046921399
0.004143496545
-0.0113461191
0.002066851231
-0.01193327075
-0.000411208086
-0.0121077202
-0.003224310921
-0.01172709434
-0.006226270133
-0.01065507288
-0.009144440566
-0.008814622883
-0.01153717471
-0.006286667644
-0.01276734533
-0.003444662099
-0.01207124541
-0.00104391712
-0.008841622612
-0.003341356605
-0.000315531691
0.002631382092
-0.001026554467
0.006133246641
-0.001967822977
0.008256165749
-0.003027674054
0.009362901338
-0.004143473391
0.009758680707
-0.005283794479
0.00964281079
-0.006432880501
0.009119643046
-0.007578517258
0.008220885942
-0.008702848577
0.006931758615
-0.009774713215
0.005215361218
-0.01074217262
0.003034310647
-0.01152331636
0.0003699356619
-0.01200057194
-0.002747055337
-0.01201137088
-0.006215471258
-0.01135883785
-0.009796973726
-0.009853750346
-0.01304226216
-0.007425784161
-0.01519531129
-0.004330018288
-0.01516701114
-0.001409877137
-0.01176176386
-0.00475123357
-0.0003252253572
0.002956607435
-0.001001544848
0.006809566093
-0.001846394136
0.009101014946
-0.002747128409
0.01026363559
-0.003653204291
0.01066475659
-0.004550009352
0.01053961588
-0.005441073956
0.01001070768
-0.006336321803
0.009116133791
-0.007244032289
0.007839469082
-0.008163870999
0.006135199888
-0.00907873116
0.003949170757
-0.009944459222
0.001235663717
-0.01067123485
-0.002020279699
-0.01110964801
-0.005777058042
-0.01103229833
-0.009874323293
-0.01014688143
-0.01392767896
-0.008188321318
-0.01715387135
-0.005165803711
-0.01818952863
-0.001846250513
-0.01508131716
-0.006597483922
-0.0003785693633
0.003335176777
-0.0010422663
0.007473263088
-0.001767483359
0.00982623201
-0.002441627888
0.01093778012
-0.003036894288
0.01126002305
-0.003565284539
0.01106800608
-0.004056379853
0.01050180305
-0.004546408843
0.009606162816
-0.005072612537
0.0083656728
-0.005668507478
0.006731094832
-0.006357547178
0.004638210422
-0.007142871939
0.00202098841
-0.007988218938
-0.001174932794
-0.00879199044
-0.004973286492
-0.009347901828
-0.009318411701
-0.009310242195
-0.01396533861
-0.008224990014
-0.01823912362
-0.005747105243
-0.02066741325
-0.002321197913
-0.01850722432
-0.008918681983
-0.0005284283288
0.003863605107
-0.001236776312
0.008181611168
-0.001828897414
0.01041835317
-0.002204527065
0.01131340968
-0.002381145812
0.01143664178
-0.002413882927
0.01110074319
-0.002367535027
0.01045545521
-0.002308073403
0.009546701166
-0.002301249141
0.008358848459
-0.00241169925
0.006841544886
-0.00270057952
0.004927090741
-0.003219039896
0.002539448883
-0.0039945622
-0.0003994104662
-0.005002498681
-0.003965349927
-0.006117211462
-0.008203698801
-0.007025703551
-0.01305684683
-0.007160122943
-0.01810470421
-0.005785665919
-0.02204187028
-0.002755168801
-0.0215377218
-0.0116738507
-0.0008598438107
0.004723448935
-0.001695785415
0.009017552685
-0.002118889994
0.01084145777
-0.002086268501
0.01128078818
-0.001704089553
0.01105446275
-0.00109518098
0.01049183455
-0.0003701738225
0.009730448034
0.0003735678027
0.00880295961
0.001045628756
0.007686787553
0.001556665987
0.006330507676
0.001816449463
0.004667307339
0.001734351882
0.002621546548
0.001223823382
0.000111117982
0.0002242295124
-0.00296575614
-0.001259751781
-0.006719717463
-0.003050215922
-0.01126638255
-0.004617902933
-0.01653701715
-0.004897641576
-0.02176213154
-0.002970236449
-0.02346512651
-0.01464408702
-0.001489079142
0.006212528078
-0.002458271567
0.009986744859
-0.002525006468
0.01090819257
-0.001833539338
0.01058932098
-0.0006525519807
0.009873475382
0.0008010449372
0.00903823769
0.002367639129
0.008163853922
0.003924105628
0.007246493194
0.005364289414
0.00624660376
0.006585652697
0.005109144293
0.007481025593
0.0037719344
0.00793402685
0.002168545297
0.007815385072
0.0002297596344
0.006997279245
-0.002147650318
0.005358841136
-0.005081279184
0.002890357078
-0.008797898273
-5.388859919e-05
-0.01359277146
-0.002528206995
-0.01928781294
-0.002630393088
-0.02336294062
-0.01727448011
-0.002374917794
0.008587445816
-0.003006767246
0.01061859406
-0.002019969334
0.009921394484
-8.076174256e-05
0.00865011336
0.002307690802
0.00748502285
0.004856116752
0.006489811774
0.007393330043
0.005626640672
0.009804275098
0.004835548124
0.01199445594
0.004056422856
0.0138698744
0.003233725789
0.01532604019
0.002315768665
0.0162412116
0.001253373799
0.01645815934
1.281167667e-05
0.015830855
-0.001520345841
0.01414712096
-0.003397545405
0.01120825955
-0.005859036669
0.006960796638
-0.009345308521
0.002140723417
-0.01446773967
-0.001053650949
-0.02016856664
-0.01832813093
-0.002144012366
0.01073145811
-7.196390281e-05
0.008546545229
0.003717311432
0.006132118947
0.007653927385
0.004713497311
0.0114467138
0.003692236438
0.01497731023
0.00295921537
0.01819486874
0.002409082195
0.02107087515
0.001959541709
0.02357126916
0.001556028836
0.02564437446
0.001160620565
0.02721500947
0.0007451336777
0.02817888175
0.0002895012026
0.028428537
-0.0002368437115
0.02777590815
-0.0008677168862
0.02601896791
-0.001640605646
0.02285176648
-0.002691835207
0.01786649581
-0.004360037665
0.01073975561
-0.007340999286
0.002900414246
-0.01232922517
-0.01542771664
0.01073145797
0.01927800317
0.02541012214
0.03012361943
0.03381585584
0.03677507118
0.03918415337
0.04114369503
0.0426997238
0.04386034434
0.04460547806
0.04489497924
0.04465813585
0.04379041878
0.04214981389
0.03945797858
0.03509794075
0.02775694157
0.01542771665
)
;

boundaryField
{
    movingWall
    {
        type            calculated;
        value           uniform 0;
    }
    fixedWalls
    {
        type            calculated;
        value           uniform 0;
    }
    frontAndBack
    {
        type            empty;
    }
}


// ************************************************************************* //
