/*--------------------------------*- C++ -*----------------------------------*\
  =========                 |
  \\      /  F ield         | OpenFOAM: The Open Source CFD Toolbox
   \\    /   O peration     | Website:  https://openfoam.org
    \\  /    A nd           | Version:  13
     \\/     M anipulation  |
\*---------------------------------------------------------------------------*/
FoamFile
{
    format      ascii;
    class       surfaceScalarField;
    location    "8";
    object      phi;
}
// * * * * * * * * * * * * * * * * * * * * * * * * * * * * * * * * * * * * * //

dimensions      [0 3 -1 0 0 0 0];

internalField   nonuniform List<scalar> 
180
(
-0.000252805
0.00025281
-0.000943534
0.000690724
-0.00181802
0.000874474
-0.00263067
0.000812649
-0.00314752
0.000516852
-0.00314279
-4.73135e-06
-0.00248271
-0.000660082
-0.00135175
-0.00113097
-0.000321778
-0.00102996
-0.000321764
-0.000860308
0.00111311
-0.00260578
0.00243619
-0.00461102
0.0028797
-0.00637598
0.00257762
-0.00743717
0.00157806
-0.00737388
-6.80306e-05
-0.00596644
-0.00206754
-0.00351904
-0.00357838
-0.00107457
-0.00347443
-0.00139633
-0.00139304
0.00250615
-0.00398686
0.00503001
-0.00682575
0.0057186
-0.00928825
0.00504012
-0.0108229
0.00311267
-0.0109033
1.24159e-05
-0.00916054
-0.0038103
-0.0057683
-0.00697061
-0.00194555
-0.00729719
-0.00334189
-0.0018214
0.00432754
-0.00506863
0.00827726
-0.00855492
0.00920492
-0.0116292
0.00811436
-0.0137427
0.00522615
-0.0142715
0.000541231
-0.0126288
-0.00545297
-0.0085817
-0.0110177
-0.00321577
-0.0126631
-0.00655763
-0.00214182
0.00646937
-0.00577812
0.0119136
-0.00961001
0.0130368
-0.0130558
0.0115602
-0.015677
0.00784736
-0.0168781
0.00174233
-0.0158496
-0.00648144
-0.0117803
-0.0150871
-0.00505401
-0.0193894
-0.0116116
-0.00235033
0.00881971
-0.00596323
0.0155265
-0.00954171
0.0166153
-0.0127139
0.0147323
-0.0153309
0.0104645
-0.0170525
0.0034639
-0.017091
-0.00644301
-0.014081
-0.018097
-0.00709891
-0.0263715
-0.0187105
-0.0025216
0.0113413
-0.00556228
0.0185671
-0.00786038
0.0189134
-0.00955791
0.0164298
-0.0110595
0.011966
-0.0125893
0.00499377
-0.0137884
-0.005244
-0.013115
-0.0187704
-0.00807984
-0.0314067
-0.0267904
-0.00308491
0.0144262
-0.00483286
0.0203151
-0.00409527
0.0181758
-0.00249374
0.0148283
-0.00127743
0.0107497
-0.0013329
0.0050492
-0.0031596
-0.0034173
-0.00586223
-0.0160678
-0.00598682
-0.0312821
-0.0327772
-0.00536174
0.019788
-0.00107004
0.0160234
0.00636724
0.0107385
0.0131747
0.0080208
0.018259
0.00566544
0.0205513
0.00275696
0.0187119
-0.00157795
0.0121444
-0.0095002
0.00278787
-0.0219256
-0.0299893
0.019788
0.0358114
0.0465499
0.0545707
0.0602361
0.0629931
0.0614151
0.0519149
0.0299893
)
;

boundaryField
{
    movingWall
    {
        type            calculated;
        value           uniform 0;
    }
    fixedWalls
    {
        type            calculated;
        value           uniform 0;
    }
    frontAndBack
    {
        type            empty;
    }
}


// ************************************************************************* //
