/*--------------------------------*- C++ -*----------------------------------*\
  =========                 |
  \\      /  F ield         | OpenFOAM: The Open Source CFD Toolbox
   \\    /   O peration     | Website:  https://openfoam.org
    \\  /    A nd           | Version:  13
     \\/     M anipulation  |
\*---------------------------------------------------------------------------*/
FoamFile
{
    format      ascii;
    class       volVectorField;
    location    "8";
    object      U;
}
// * * * * * * * * * * * * * * * * * * * * * * * * * * * * * * * * * * * * * //

dimensions      [0 1 -1 0 0 0 0];

internalField   nonuniform List<vector> 
400
(
(8.61047578e-05 -8.794218578e-05 0)
(-0.0002614189191 8.549121292e-05 0)
(-0.001369038162 0.0002556652071 0)
(-0.003049242279 0.0003655877414 0)
(-0.005038432301 0.0004211834737 0)
(-0.00711096432 0.0004340378516 0)
(-0.009090236007 0.0004121015539 0)
(-0.01083034676 0.0003583907478 0)
(-0.0122005587 0.0002730559125 0)
(-0.01307948168 0.0001565696208 0)
(-0.01336032963 1.301349338e-05 0)
(-0.01296639662 -0.0001473759349 0)
(-0.01187391838 -0.0003069656416 0)
(-0.01013694078 -0.0004413680854 0)
(-0.007906576614 -0.0005228231695 0)
(-0.005435959853 -0.0005262890467 0)
(-0.003062841782 -0.0004373817176 0)
(-0.001163186539 -0.000260837842 0)
(-5.730118882e-05 -3.111987452e-05 0)
(0.0001461784536 0.0001432860767 0)
(-9.028341528e-05 0.0002567506019 0)
(-0.001616301683 0.001563362388 0)
(-0.004763751498 0.002825657957 0)
(-0.009091388188 0.003640023846 0)
(-0.01405057684 0.004004629221 0)
(-0.01915474792 0.003990858052 0)
(-0.0239923646 0.00366483742 0)
(-0.02820913471 0.003067488979 0)
(-0.03148729075 0.002222185549 0)
(-0.03354030457 0.001152672218 0)
(-0.03412760228 -9.674759316e-05 0)
(-0.0330887068 -0.001444213191 0)
(-0.0303911414 -0.002761218387 0)
(-0.02618082622 -0.003876062889 0)
(-0.02081827996 -0.004593851823 0)
(-0.01488152484 -0.00473484159 0)
(-0.009118410932 -0.00418800491 0)
(-0.004331646405 -0.002975989719 0)
(-0.001199109983 -0.001335016034 0)
(1.665368341e-05 -2.069062603e-05 0)
(-0.0002900739334 0.001432458938 0)
(-0.003151695606 0.004790471642 0)
(-0.008240629617 0.007655354063 0)
(-0.01484233063 0.009480263162 0)
(-0.02219847745 0.01026733158 0)
(-0.0296617608 0.01014835268 0)
(-0.03667463634 0.009255144306 0)
(-0.04274945063 0.007680640349 0)
(-0.04744815604 0.005490590223 0)
(-0.05037992456 0.002758717219 0)
(-0.05122100939 -0.0003916979527 0)
(-0.04975741649 -0.003752206889 0)
(-0.04594411476 -0.007011103132 0)
(-0.03996881067 -0.009762904428 0)
(-0.03230146133 -0.01155583293 0)
(-0.0237046023 -0.01198128268 0)
(-0.01518007802 -0.01079864164 0)
(-0.007826955504 -0.008076666619 0)
(-0.002635428303 -0.004328963293 0)
(-0.0001490892195 -0.0009293419136 0)
(-0.0004623877153 0.003392059027 0)
(-0.004533227915 0.009668092774 0)
(-0.0114134834 0.01453977741 0)
(-0.02005651503 0.01753773511 0)
(-0.02950351714 0.01874704484 0)
(-0.0389849396 0.01839398215 0)
(-0.04785043066 0.01669337148 0)
(-0.05553064897 0.01380144135 0)
(-0.06150919762 0.00983583383 0)
(-0.06531777356 0.004930664765 0)
(-0.06655660694 -0.0006974739907 0)
(-0.06494155138 -0.006691631067 0)
(-0.06037353098 -0.01252232288 0)
(-0.05302008475 -0.01749904177 0)
(-0.04338988763 -0.02084391742 0)
(-0.03236999319 -0.02183887982 0)
(-0.02119006871 -0.02003845457 0)
(-0.01127276123 -0.0155088798 0)
(-0.003985492536 -0.009024823027 0)
(-0.0002919043178 -0.00255589758 0)
(-0.0006099345566 0.006026846974 0)
(-0.005759732056 0.01602237171 0)
(-0.01429325705 0.02326231091 0)
(-0.02482367797 0.02755412936 0)
(-0.03619929555 0.02916614795 0)
(-0.04754859542 0.02846966835 0)
(-0.05816141789 0.02578399154 0)
(-0.06742106827 0.02133392601 0)
(-0.07475875819 0.01528539564 0)
(-0.07963857001 0.007824857398 0)
(-0.08157274812 -0.0007456846891 0)
(-0.08017005402 -0.009921831171 0)
(-0.07521649526 -0.01894131155 0)
(-0.06678274433 -0.02678587836 0)
(-0.05534152936 -0.03227231087 0)
(-0.04185919364 -0.0342589916 0)
(-0.02780784995 -0.03196794808 0)
(-0.01502551784 -0.02536262064 0)
(-0.00538700204 -0.01544654289 0)
(-0.0004328938307 -0.004847826109 0)
(-0.0007399590682 0.009259208876 0)
(-0.006886252345 0.02372899174 0)
(-0.01697443497 0.03369489506 0)
(-0.02929883008 0.03940691425 0)
(-0.04252617727 0.04142012738 0)
(-0.05570219937 0.04031239489 0)
(-0.0680834826 0.0365344136 0)
(-0.07903294045 0.03038134991 0)
(-0.08794865301 0.02205179473 0)
(-0.09423106588 0.01175748178 0)
(-0.09728639506 -0.0001462032003 0)
(-0.09657147918 -0.01303452193 0)
(-0.09168479075 -0.02591884559 0)
(-0.08250576568 -0.0374186333 0)
(-0.06937315724 -0.04584907548 0)
(-0.05326431811 -0.04947964529 0)
(-0.03590027974 -0.04699059914 0)
(-0.01965169997 -0.03806138799 0)
(-0.007101048135 -0.02387094322 0)
(-0.0006068494421 -0.007868563078 0)
(-0.0008584604419 0.0130528307 0)
(-0.007969150335 0.03271617501 0)
(-0.01955229471 0.04576460581 0)
(-0.03361654661 0.05303754341 0)
(-0.04865755853 0.05548149066 0)
(-0.06366075257 0.05394829429 0)
(-0.07787701292 0.04904986873 0)
(-0.09067660747 0.04115009228 0)
(-0.1014461456 0.03045394864 0)
(-0.1095313765 0.01715357406 0)
(-0.1142214086 0.001601314674 0)
(-0.1147819772 -0.01551396006 0)
(-0.1105501601 -0.03301338641 0)
(-0.1011042574 -0.04913970346 0)
(-0.08651418073 -0.06160437793 0)
(-0.06764331393 -0.0678710526 0)
(-0.0464111829 -0.06576249465 0)
(-0.02582423957 -0.054360402 0)
(-0.009450586973 -0.03488844947 0)
(-0.0008554453951 -0.01183970142 0)
(-0.0009690724344 0.01740178241 0)
(-0.009049994493 0.04295185855 0)
(-0.02209047188 0.05943175441 0)
(-0.03784830317 0.0684099207 0)
(-0.0546529282 0.07133656342 0)
(-0.07145499905 0.06941163762 0)
(-0.08753123309 0.06344113185 0)
(-0.1022926751 0.05385421388 0)
(-0.1151456047 0.04082869841 0)
(-0.1254050845 0.02447819592 0)
(-0.1322525284 0.005073016481 0)
(-0.134746667 -0.01672299377 0)
(-0.1319072 -0.03961828669 0)
(-0.1229001002 -0.06150825711 0)
(-0.1073552673 -0.07942358561 0)
(-0.08581508778 -0.08977623772 0)
(-0.06023311897 -0.08909397856 0)
(-0.03427119235 -0.07533548316 0)
(-0.01281590879 -0.04944397981 0)
(-0.001229021888 -0.01716251686 0)
(-0.001074316672 0.02232060102 0)
(-0.01015732789 0.05442357699 0)
(-0.02461628049 0.07465866854 0)
(-0.04198950803 0.08546274256 0)
(-0.06043612045 0.08891876194 0)
(-0.07889932569 0.0866595307 0)
(-0.09671758274 0.07972338533 0)
(-0.1133835727 0.06860329081 0)
(-0.1283678806 0.05341516092 0)
(-0.1410018939 0.03412893064 0)
(-0.1504034883 0.01083773463 0)
(-0.1554520474 -0.01594017492 0)
(-0.1548399703 -0.04492999358 0)
(-0.1472410735 -0.07378332761 0)
(-0.1316617522 -0.09884970961 0)
(-0.108030389 -0.1152740528 0)
(-0.07799831472 -0.1177516264 0)
(-0.04570378422 -0.1022971248 0)
(-0.01764566325 -0.0688564499 0)
(-0.001792223764 -0.02444949646 0)
(-0.001178945999 0.02784036919 0)
(-0.01131989438 0.06712271331 0)
(-0.0271363308 0.09137777491 0)
(-0.04597139838 0.1040577439 0)
(-0.06579923061 0.108035349 0)
(-0.08558461904 0.1054766787 0)
(-0.104767606 0.09769921586 0)
(-0.1229702063 0.08526529454 0)
(-0.1397859576 0.06820205502 0)
(-0.154636771 0.04627708696 0)
(-0.1666654666 0.01931007208 0)
(-0.1746629276 -0.01246820578 0)
(-0.1770649942 -0.0479813849 0)
(-0.1720530566 -0.08484318272 0)
(-0.1578689836 -0.1188638498 0)
(-0.1334860317 -0.14384244 0)
(-0.09971800443 -0.1521034262 0)
(-0.06065666935 -0.1365676738 0)
(-0.0244560169 -0.09479311784 0)
(-0.002632721265 -0.03456861288 0)
(-0.001296355597 0.03401617392 0)
(-0.01259306139 0.08104008596 0)
(-0.02967235063 0.1094626152 0)
(-0.04969625924 0.1239237486 0)
(-0.07043148189 0.1282859992 0)
(-0.09089963374 0.1253695708 0)
(-0.1106876943 0.1168281128 0)
(-0.1296001532 0.1033106287 0)
(-0.1474232399 0.08474698382 0)
(-0.1637673787 0.06066730796 0)
(-0.1779350415 0.03054381091 0)
(-0.1887910496 -0.005814244213 0)
(-0.1946934972 -0.04776936119 0)
(-0.1934648359 -0.09319072495 0)
(-0.1825655811 -0.137700186 0)
(-0.1597225267 -0.1739523038 0)
(-0.124231123 -0.1915720195 0)
(-0.07916374474 -0.1790279327 0)
(-0.03378204142 -0.1291308259 0)
(-0.003872502924 -0.0486950248 0)
(-0.001460265889 0.04095559107 0)
(-0.01410438427 0.09618234943 0)
(-0.03231976564 0.1287054967 0)
(-0.05309293478 0.1445973064 0)
(-0.07396647933 0.1489755281 0)
(-0.09407552571 0.1454577126 0)
(-0.1132128643 0.1360978555 0)
(-0.1314246582 0.1216614917 0)
(-0.1487646217 0.1019990053 0)
(-0.1651409618 0.07640803679 0)
(-0.1801755539 0.0439842941 0)
(-0.1930510806 0.004016077208 0)
(-0.2023194602 -0.04351172012 0)
(-0.2057293477 -0.0971208504 0)
(-0.2001826441 -0.152815628 0)
(-0.1820672485 -0.2027205612 0)
(-0.1485107735 -0.2339521251 0)
(-0.1001988331 -0.2293516754 0)
(-0.04601304334 -0.1735814244 0)
(-0.005679258032 -0.06835129455 0)
(-0.001746268497 0.04888503326 0)
(-0.01612901097 0.1126188821 0)
(-0.03533040743 0.1487986325 0)
(-0.05617943548 0.1653532407 0)
(-0.07602258547 0.1690193929 0)
(-0.09422235785 0.1643712807 0)
(-0.1108693908 0.153920853 0)
(-0.1263225006 0.1385842047 0)
(-0.1409756441 0.1181753451 0)
(-0.1551365036 0.09181208965 0)
(-0.1689049137 0.05825266117 0)
(-0.1820110398 0.0162412509 0)
(-0.1935553438 -0.03502075039 0)
(-0.2016726709 -0.09512004474 0)
(-0.2031794051 -0.161175005 0)
(-0.1934191321 -0.2258588805 0)
(-0.1670359931 -0.2748111833 0)
(-0.1208908277 -0.2849514521 0)
(-0.06099311591 -0.2288984379 0)
(-0.008269152254 -0.09537854758 0)
(-0.002311527601 0.05828071146 0)
(-0.01921063647 0.1305639979 0)
(-0.03920789033 0.1692975347 0)
(-0.05908550439 0.1850990312 0)
(-0.07615925888 0.1868257564 0)
(-0.09025938582 0.1801553255 0)
(-0.1019335647 0.1680749914 0)
(-0.1119466492 0.1516652148 0)
(-0.1210958448 0.1307544111 0)
(-0.1301512041 0.1043702713 0)
(-0.1397863318 0.07104562197 0)
(-0.1504490334 0.02907591541 0)
(-0.1621031914 -0.02313909483 0)
(-0.1737859258 -0.08650312706 0)
(-0.1829564749 -0.159971058 0)
(-0.1847171877 -0.2381901875 0)
(-0.1716010152 -0.307363725 0)
(-0.1357190837 -0.3399078205 0)
(-0.07724479715 -0.2934987842 0)
(-0.01186996244 -0.131694267 0)
(-0.003451994255 0.07009671715 0)
(-0.02432802677 0.1504708805 0)
(-0.04474080307 0.1894914334 0)
(-0.06187309898 0.2021521668 0)
(-0.0735195676 0.2000913698 0)
(-0.08046239225 0.1901418177 0)
(-0.08397262102 0.1756751764 0)
(-0.08534215022 0.1578832171 0)
(-0.08581104877 0.1366273874 0)
(-0.08660578524 0.110934293 0)
(-0.08895563756 0.07926632799 0)
(-0.09404447063 0.0396724438 0)
(-0.1028393964 -0.01005942501 0)
(-0.1156620548 -0.0721158472 0)
(-0.1314182557 -0.1477037983 0)
(-0.1462516392 -0.2348560986 0)
(-0.1519265113 -0.32322217 0)
(-0.1360952538 -0.3844580804 0)
(-0.09076161681 -0.3616171384 0)
(-0.01653486463 -0.178583853 0)
(-0.005613026616 0.0862079177 0)
(-0.03296482783 0.1730593566 0)
(-0.05261579363 0.2079396835 0)
(-0.06356798012 0.213660477 0)
(-0.06543775011 0.2053297454 0)
(-0.06085549907 0.190670458 0)
(-0.05218498647 0.1731101996 0)
(-0.04134956549 0.1537582165 0)
(-0.03000357711 0.1324351536 0)
(-0.01971611237 0.1081971741 0)
(-0.01210538785 0.07957723137 0)
(-0.008906010447 0.04463084109 0)
(-0.01195132546 0.0009060499041 0)
(-0.02285489028 -0.05460309699 0)
(-0.04248201246 -0.1251650723 0)
(-0.06944683472 -0.2129543208 0)
(-0.09706817081 -0.3141248722 0)
(-0.1106606463 -0.4056654569 0)
(-0.09357409858 -0.4217927047 0)
(-0.02155785525 -0.2354528084 0)
(-0.009327580282 0.1108771541 0)
(-0.04638816153 0.199027598 0)
(-0.06106059964 0.2210340576 0)
(-0.05822801465 0.2141819096 0)
(-0.04277726301 0.196886723 0)
(-0.02044750797 0.1766005552 0)
(0.005140343918 0.1559972168 0)
(0.03158348036 0.1356696502 0)
(0.05706043686 0.1151901313 0)
(0.0799701694 0.09357386351 0)
(0.09863438783 0.06952092439 0)
(0.1111231428 0.04130217053 0)
(0.1151704877 0.00663800902 0)
(0.1083296609 -0.03753734445 0)
(0.08793813593 -0.09552833259 0)
(0.05209530186 -0.1729360825 0)
(0.003151215186 -0.2742916113 0)
(-0.0461437155 -0.3893506674 0)
(-0.07290766819 -0.4565612616 0)
(-0.02432858748 -0.2984352845 0)
(-0.01638173959 0.1542533052 0)
(-0.06118462682 0.2264268557 0)
(-0.05459655621 0.2183409758 0)
(-0.02109488122 0.192614799 0)
(0.02316485998 0.165836607 0)
(0.07002275777 0.1415257293 0)
(0.1159079503 0.1201466907 0)
(0.1589446639 0.1012079635 0)
(0.1978919119 0.08379231022 0)
(0.2317545625 0.06675819602 0)
(0.259269429 0.04902715458 0)
(0.2787246094 0.02939604398 0)
(0.2879754316 0.006020781308 0)
(0.2844965601 -0.02353587558 0)
(0.2647963162 -0.06303730329 0)
(0.2241340334 -0.119136676 0)
(0.1586932506 -0.2032566631 0)
(0.07280647689 -0.3235393318 0)
(-0.01235212513 -0.4423389148 0)
(-0.01744482494 -0.3531360387 0)
(-0.0224551915 0.2100593851 0)
(-0.03662637405 0.2339745685 0)
(0.03995096866 0.1784606948 0)
(0.1267359899 0.1374613167 0)
(0.2052768597 0.1077428689 0)
(0.2742036206 0.08504157778 0)
(0.3341731242 0.06757009506 0)
(0.3858018149 0.05383181915 0)
(0.4294837393 0.04249471728 0)
(0.4655330707 0.03244163995 0)
(0.4928896227 0.02306366438 0)
(0.5119547881 0.01309469478 0)
(0.5210517074 0.001497047918 0)
(0.5178494674 -0.01318641161 0)
(0.4980882636 -0.03343743239 0)
(0.4565852112 -0.06298640974 0)
(0.3844013619 -0.1139558767 0)
(0.2707594843 -0.2073973088 0)
(0.1187857589 -0.3400245486 0)
(0.03453106284 -0.3352473241 0)
(0.2426077044 0.1095348714 0)
(0.3157115084 0.0976594032 0)
(0.4483981814 0.0569861572 0)
(0.5539018282 0.03471987059 0)
(0.6278055003 0.02287407453 0)
(0.6818687171 0.01566135081 0)
(0.7230969425 0.01100353831 0)
(0.7550758409 0.007907541774 0)
(0.7799289947 0.005743845019 0)
(0.7989309386 0.004106649855 0)
(0.8126964372 0.002664887211 0)
(0.8212112826 0.001190244321 0)
(0.8238506812 -0.0004650284702 0)
(0.8193647163 -0.002435237683 0)
(0.8053333002 -0.005069489684 0)
(0.7774317869 -0.00914779142 0)
(0.7261736667 -0.01683084761 0)
(0.6335149923 -0.03295217445 0)
(0.4610643541 -0.08205065766 0)
(0.3031484777 -0.1246487287 0)
)
;

boundaryField
{
    movingWall
    {
        type            fixedValue;
        value           uniform (1 0 0);
    }
    fixedWalls
    {
        type            fixedValue;
        value           uniform (0 0 0);
    }
    frontAndBack
    {
        type            empty;
    }
}


// ************************************************************************* //
