/*--------------------------------*- C++ -*----------------------------------*\
  =========                 |
  \\      /  F ield         | OpenFOAM: The Open Source CFD Toolbox
   \\    /   O peration     | Website:  https://openfoam.org
    \\  /    A nd           | Version:  13
     \\/     M anipulation  |
\*---------------------------------------------------------------------------*/
FoamFile
{
    format      ascii;
    class       volVectorField;
    location    "8";
    object      U_0;
}
// * * * * * * * * * * * * * * * * * * * * * * * * * * * * * * * * * * * * * //

dimensions      [0 1 -1 0 0 0 0];

internalField   nonuniform List<vector> 
100
(
(-0.000477599 0.000449542 0)
(-0.00540978 0.00155468 0)
(-0.0133571 0.00211992 0)
(-0.0219058 0.0021467 0)
(-0.0285513 0.00161606 0)
(-0.0310599 0.000407961 0)
(-0.0277003 -0.00125152 0)
(-0.0186842 -0.00257432 0)
(-0.00769877 -0.00235996 0)
(-0.000658734 -0.000539583 0)
(-0.00201682 0.00579501 0)
(-0.0158015 0.0135841 0)
(-0.0347921 0.0165209 0)
(-0.0539077 0.0150186 0)
(-0.0680749 0.00939494 0)
(-0.0730098 -4.80583e-05 0)
(-0.0656312 -0.0113013 0)
(-0.0462467 -0.0195897 0)
(-0.0213023 -0.0185416 0)
(-0.00251638 -0.00703348 0)
(-0.00339561 0.0166596 0)
(-0.0247406 0.0345167 0)
(-0.0522033 0.039706 0)
(-0.0790517 0.0349106 0)
(-0.0990677 0.0211619 0)
(-0.107063 -0.000686758 0)
(-0.0987653 -0.026614 0)
(-0.0731588 -0.0469189 0)
(-0.0367014 -0.0472717 0)
(-0.00475367 -0.0209135 0)
(-0.0045265 0.0322639 0)
(-0.0321088 0.0628824 0)
(-0.0663234 0.0702297 0)
(-0.0996711 0.0612192 0)
(-0.125714 0.0379016 0)
(-0.138811 0.00117236 0)
(-0.133137 -0.0438551 0)
(-0.10491 -0.0828254 0)
(-0.0581447 -0.0902292 0)
(-0.00835739 -0.0445728 0)
(-0.00542883 0.051722 0)
(-0.0378238 0.0967492 0)
(-0.0763198 0.106107 0)
(-0.113799 0.0927612 0)
(-0.144583 0.059972 0)
(-0.163521 0.00773841 0)
(-0.163748 -0.0596312 0)
(-0.138219 -0.124991 0)
(-0.0861703 -0.149866 0)
(-0.0141701 -0.0832598 0)
(-0.00609895 0.0742614 0)
(-0.0414432 0.133479 0)
(-0.0794774 0.143787 0)
(-0.11516 0.12608 0)
(-0.14511 0.0851761 0)
(-0.166644 0.0193255 0)
(-0.173971 -0.0702694 0)
(-0.157905 -0.167897 0)
(-0.111785 -0.224984 0)
(-0.0218518 -0.145008 0)
(-0.00673319 0.0997922 0)
(-0.0432179 0.168948 0)
(-0.0725649 0.176279 0)
(-0.0949849 0.153495 0)
(-0.112305 0.107357 0)
(-0.1274 0.0342288 0)
(-0.138888 -0.069887 0)
(-0.137937 -0.197598 0)
(-0.113317 -0.300951 0)
(-0.0277454 -0.234436 0)
(-0.00941861 0.133733 0)
(-0.0467579 0.197723 0)
(-0.0528506 0.19197 0)
(-0.0419899 0.161837 0)
(-0.0286428 0.116085 0)
(-0.0228022 0.0488246 0)
(-0.0303612 -0.0501793 0)
(-0.0463401 -0.189109 0)
(-0.0605863 -0.337667 0)
(-0.0176769 -0.324836 0)
(-0.0330489 0.191133 0)
(-0.0440388 0.211842 0)
(0.0226236 0.167072 0)
(0.0940335 0.131107 0)
(0.152242 0.0954366 0)
(0.188438 0.0508892 0)
(0.191211 -0.0141531 0)
(0.160102 -0.121957 0)
(0.0887055 -0.272452 0)
(0.0538404 -0.317785 0)
(0.225116 0.106257 0)
(0.285641 0.099116 0)
(0.405921 0.0654699 0)
(0.506057 0.0450178 0)
(0.574678 0.0317321 0)
(0.6157 0.0205496 0)
(0.618959 0.00663667 0)
(0.581787 -0.0129825 0)
(0.456456 -0.0555049 0)
(0.320606 -0.108653 0)
)
;

boundaryField
{
    movingWall
    {
        type            calculated;
        value           uniform (1 0 0);
    }
    fixedWalls
    {
        type            calculated;
        value           uniform (0 0 0);
    }
    frontAndBack
    {
        type            empty;
    }
}


// ************************************************************************* //
