/*--------------------------------*- C++ -*----------------------------------*\
  =========                 |
  \\      /  F ield         | OpenFOAM: The Open Source CFD Toolbox
   \\    /   O peration     | Website:  https://openfoam.org
    \\  /    A nd           | Version:  13
     \\/     M anipulation  |
\*---------------------------------------------------------------------------*/
FoamFile
{
    format      ascii;
    class       vectorField;
    location    "8";
    object      U_all;
}
// * * * * * * * * * * * * * * * * * * * * * * * * * * * * * * * * * * * * * //


400
(
(2.838823892e-06 -2.394187577e-05 0)
(-0.0006504705724 0.0004013962994 -1.411726276e-23)
(-0.002083372197 0.0008744822066 0)
(-0.003833654551 0.001239360509 0)
(-0.005639642147 0.001445676329 5.31735296e-25)
(-0.0073233968 0.001477482305 3.990339899e-24)
(-0.008760667383 0.001340767357 -1.824335334e-24)
(-0.009858747625 0.00105697507 1.354022289e-23)
(-0.01054329986 0.0006604489251 -2.630802615e-25)
(-0.01075718699 0.0001972425682 -4.844940138e-24)
(-0.01046451682 -0.0002793661672 6.803782736e-24)
(-0.009661553495 -0.0007071078618 -6.802242757e-23)
(-0.008389607959 -0.001026625858 -7.570197255e-23)
(-0.006743026898 -0.001188420378 -8.932864268e-23)
(-0.004874232812 -0.001164252387 5.389933726e-24)
(-0.002988959726 -0.0009578885218 -5.091016655e-24)
(-0.001326483085 -0.0006128632349 -2.711626469e-22)
(-0.0001451433783 -0.000209867224 0)
(0.0004282290873 0.000125656881 5.035860933e-25)
(0.000199524047 0.0002729472108 -4.904536321e-23)
(-0.0002484267574 0.0008046349174 1.256445048e-25)
(-0.00254038506 0.003196132373 1.421202536e-23)
(-0.006465719414 0.005257853191 1.364221113e-25)
(-0.01117213261 0.006559991896 -6.673491521e-25)
(-0.01601022608 0.007069605958 8.618917984e-25)
(-0.02054075094 0.006836694276 8.232559937e-24)
(-0.02443220964 0.005945259793 6.368153916e-24)
(-0.02743118765 0.004500464667 -1.314845199e-23)
(-0.0293384676 0.00263245077 1.345961312e-23)
(-0.03000880526 0.0005033049881 5.488627121e-24)
(-0.02935330302 -0.001687116125 -7.410921001e-24)
(-0.02736615153 -0.003714101431 2.38925146e-24)
(-0.02415625876 -0.005337657722 4.374862766e-23)
(-0.01995912688 -0.006335055449 -2.377922726e-24)
(-0.01514922944 -0.006540855271 4.671231972e-24)
(-0.01022579683 -0.005893034389 -1.334791186e-22)
(-0.00576537214 -0.004477309042 1.343023718e-22)
(-0.002350628058 -0.002564753884 -1.092117517e-24)
(-0.000289873992 -0.0006380151925 1.119653525e-24)
(6.162970273e-05 0.0005055141115 0)
(-0.0003858396816 0.002767803142 -2.583860448e-25)
(-0.004313705317 0.008231253148 1.387110951e-23)
(-0.01055229889 0.0123435416 -8.356821223e-24)
(-0.01794006803 0.01471375256 -1.455220935e-25)
(-0.02552056691 0.01541633283 1.429598344e-25)
(-0.03265799087 0.01462728949 1.412209968e-25)
(-0.03885292873 0.01254931013 -6.024717867e-24)
(-0.04371258544 0.009398202736 -7.923686468e-25)
(-0.0469229495 0.005420065628 -1.40966305e-23)
(-0.04824260722 0.0009141207488 0)
(-0.04752400707 -0.003747958819 0)
(-0.04474077849 -0.008135797931 3.194733067e-23)
(-0.04002315247 -0.01177292462 3.371971388e-23)
(-0.0336957811 -0.01419234827 -2.107574975e-24)
(-0.026292053 -0.01501187839 6.556523757e-23)
(-0.01853891976 -0.01403018937 1.292110167e-22)
(-0.01129154486 -0.01133067681 8.174889132e-23)
(-0.005415794688 -0.007376152617 1.834696316e-24)
(-0.001489177947 -0.003072699966 -6.464507291e-25)
(-9.501489121e-05 7.404907113e-05 0)
(-0.0004577510801 0.005643691048 -3.517775653e-23)
(-0.005908566169 0.01522611528 -1.374690955e-23)
(-0.0143549056 0.02189066913 8.265350238e-24)
(-0.02431269232 0.0255105196 0)
(-0.03454494221 0.02637458963 0)
(-0.04425451858 0.0248406624 0)
(-0.05280555005 0.02125798436 -2.323771129e-25)
(-0.0596845774 0.01596538526 1.916924302e-24)
(-0.0644641627 0.009330854429 0)
(-0.06679600338 0.00179888766 2.986254732e-24)
(-0.06643448334 -0.006075978095 3.699911976e-25)
(-0.06327532637 -0.01361820411 -3.710272232e-25)
(-0.05740906626 -0.02005848198 0)
(-0.04917838488 -0.02460356776 5.798495474e-23)
(-0.03921601479 -0.02655354229 -6.346359759e-23)
(-0.02844735724 -0.02546594815 -4.901943715e-23)
(-0.01802623336 -0.0213478629 -8.232319419e-23)
(-0.00918396242 -0.01483781909 7.208270436e-25)
(-0.002914036858 -0.007315422896 4.196236013e-23)
(-0.0002240264017 -0.001020015503 0)
(-0.0004834270061 0.009376296914 3.535305502e-23)
(-0.007362662958 0.02407231133 5.006230881e-25)
(-0.01792121071 0.03379861801 -4.891889445e-25)
(-0.03037608941 0.03888370756 0)
(-0.04324257429 0.03994507724 6.515858872e-25)
(-0.05558964281 0.03757756528 -6.425507723e-25)
(-0.06667187795 0.03229348006 2.843736817e-23)
(-0.07587092139 0.02454848859 9.149807741e-24)
(-0.08264326368 0.01481528354 2.890191047e-24)
(-0.08650768153 0.00366577268 -2.989732991e-24)
(-0.08707077712 -0.008163658839 0)
(-0.08407655117 -0.01974042378 6.814759761e-25)
(-0.07748354756 -0.02994878047 1.969457942e-23)
(-0.06755781242 -0.03757264178 -6.127975383e-23)
(-0.05495565765 -0.04145453326 3.167581212e-24)
(-0.04077482338 -0.04074557529 8.631984329e-23)
(-0.02652184533 -0.0352258567 -1.109921032e-24)
(-0.01394188504 -0.02562755827 0)
(-0.004672892452 -0.0138274397 4.883131278e-23)
(-0.0003436439888 -0.002935160288 -1.884857128e-22)
(-0.0004831733655 0.01390405641 9.789284929e-23)
(-0.008681314267 0.03465997502 -5.016634394e-25)
(-0.02121841249 0.04797711001 0)
(-0.0360673365 0.0547983636 0)
(-0.05153781742 0.05618140034 -7.983891495e-23)
(-0.06659762847 0.05301112569 -7.513588613e-23)
(-0.08042122247 0.04597073722 -3.149948924e-23)
(-0.09230397587 0.0356097693 -9.808752925e-24)
(-0.1015867863 0.02246473141 -2.383636922e-24)
(-0.1076312162 0.007188976055 -5.567040586e-24)
(-0.1098432315 -0.009336162376 3.632924283e-24)
(-0.1077307678 -0.02593097764 3.043729376e-24)
(-0.1010085899 -0.04109490818 -1.59868307e-23)
(-0.08974034164 -0.05308386335 -2.054790469e-23)
(-0.07449011257 -0.06009767883 0)
(-0.05646366116 -0.06062716787 -3.986726688e-23)
(-0.03755785137 -0.05395498269 7.926799809e-25)
(-0.02020652337 -0.04071758146 0)
(-0.00699997355 -0.02328600815 -8.999308953e-23)
(-0.0004890938101 -0.005885065083 4.614497539e-22)
(-0.000465819618 0.01914751088 -9.721246327e-23)
(-0.009823471699 0.046825971 2.702770527e-22)
(-0.02412411299 0.06425065854 1.447155005e-22)
(-0.04117038873 0.07312364032 3.356423047e-24)
(-0.05911666152 0.07504460827 -6.778007565e-23)
(-0.07687116133 0.07123637275 7.984639129e-23)
(-0.0935656238 0.06255320887 -3.147742513e-24)
(-0.1084383111 0.04960140949 -1.404152653e-24)
(-0.1207291563 0.03291822061 2.016970319e-24)
(-0.1296350886 0.01316189107 4.955019831e-24)
(-0.1343256048 -0.008716171993 -3.679411803e-24)
(-0.1339977036 -0.03134343572 -3.41344612e-24)
(-0.1280055028 -0.05283087804 -2.948431068e-23)
(-0.1160561683 -0.07081983753 6.874363585e-24)
(-0.09844559939 -0.08265804557 -3.304707538e-25)
(-0.07633735 -0.08583000215 0)
(-0.05197148088 -0.07868488038 0)
(-0.02861520444 -0.06138309151 -1.830670486e-24)
(-0.01020941058 -0.03668379931 1.871279101e-24)
(-0.0006919045496 -0.01026007376 9.457433329e-23)
(-0.0004313944541 0.02498644784 0)
(-0.01071117674 0.0603157362 1.87599121e-22)
(-0.02644168899 0.08231504084 8.392628206e-23)
(-0.04533372958 0.09357274601 0)
(-0.06544343385 0.09632060529 1.443485613e-22)
(-0.08566691783 0.09216342565 0)
(-0.1051394769 0.08212432009 -1.273746876e-22)
(-0.1230868474 0.06682291614 5.696520469e-24)
(-0.1386871207 0.04671983213 0)
(-0.1509995275 0.02237484062 0)
(-0.158964715 -0.005308104972 -1.075465527e-24)
(-0.1614310026 -0.0348465598 -6.262621214e-25)
(-0.157299979 -0.06405512049 1.089866864e-22)
(-0.1457662873 -0.08993343416 -4.270095256e-23)
(-0.1266224649 -0.1087973268 -1.392977684e-24)
(-0.1007154147 -0.1167236299 4.317388584e-25)
(-0.07041120355 -0.1104997092 -4.385558372e-25)
(-0.03981787847 -0.08911668325 0)
(-0.01467030241 -0.05534179066 2.542971334e-24)
(-0.0009905489217 -0.016634451 -8.359267788e-22)
(-0.0003795265988 0.03125040494 0)
(-0.01126066595 0.07475989915 -1.077351359e-22)
(-0.02794770837 0.1017015884 -5.839141148e-22)
(-0.04813387428 0.1156440342 -3.516562513e-22)
(-0.06983357604 0.1195300097 0)
(-0.09197884035 0.1153914992 3.771083132e-22)
(-0.1137612046 0.1044252149 1.124259731e-22)
(-0.1344550748 0.08722827903 -4.908575525e-24)
(-0.1532480224 0.06411034574 4.884281779e-24)
(-0.1691389906 0.03542330289 0)
(-0.1808821253 0.001884377703 2.532601546e-23)
(-0.1870418107 -0.03510168912 3.867521754e-24)
(-0.1860710784 -0.073191606 -8.396333887e-23)
(-0.1765100176 -0.108849822 5.796933534e-23)
(-0.1573999102 -0.1373056107 -1.884216269e-22)
(-0.1288740415 -0.1528749519 0)
(-0.09296136502 -0.1500062535 0)
(-0.054314592 -0.1253954221 0)
(-0.02079070226 -0.08087113682 0)
(-0.001436152939 -0.02580428498 4.653068719e-22)
(-0.0003168764792 0.03772772457 0)
(-0.0114260286 0.08968489556 -3.300432777e-22)
(-0.02847135296 0.1217705853 8.428431728e-22)
(-0.04918748093 0.1385856342 3.386729841e-22)
(-0.07159438964 0.143855751 0)
(-0.0947047038 0.1400926955 -3.537311137e-22)
(-0.1178207527 0.1286891047 -2.885996323e-23)
(-0.1403381412 0.1102075583 3.028527942e-22)
(-0.161549988 0.08475704161 1.598521454e-22)
(-0.1805163316 0.05238856684 -3.655877818e-23)
(-0.1959785245 0.01348694196 1.561043025e-23)
(-0.2063362669 -0.03084537285 -7.187231813e-24)
(-0.2096811521 -0.07834608075 2.982869312e-22)
(-0.2039324699 -0.1252280269 0)
(-0.1871904308 -0.1658123129 1.885125818e-22)
(-0.1584251467 -0.1925212136 4.167512242e-24)
(-0.1186112311 -0.1967113486 -4.229670974e-24)
(-0.07217093399 -0.1712157419 1.041663713e-22)
(-0.02897490543 -0.1150179136 -3.944044112e-24)
(-0.002105921338 -0.0388146487 0)
(-0.0002657454101 0.04420608253 0)
(-0.01125844786 0.1045678381 0)
(-0.02800325679 0.1417486815 -4.742620535e-22)
(-0.04830907453 0.1614026249 -1.773663273e-23)
(-0.07023480771 0.1681157155 1.896156696e-23)
(-0.09291862982 0.1649460812 -1.873767651e-23)
(-0.1158293884 0.153529573 -2.123859481e-23)
(-0.1385617554 0.1344188476 -2.750736089e-22)
(-0.1606275488 0.1075179167 6.408813581e-23)
(-0.1813069736 0.07252839213 4.059426643e-23)
(-0.1995308789 0.02938654163 -4.101410872e-23)
(-0.2137828867 -0.02129133521 0)
(-0.2220543314 -0.07768885889 -6.231190832e-23)
(-0.2218299921 -0.1362087759 0)
(-0.2102741914 -0.1907590496 -3.340873814e-22)
(-0.184856494 -0.232161924 4.549338106e-22)
(-0.1446623962 -0.2482826218 0)
(-0.09257468517 -0.2263453973 -1.002215792e-22)
(-0.03951285892 -0.1593073766 1.425588171e-22)
(-0.003121527353 -0.05696609621 -2.899979918e-22)
(-0.0002773767143 0.05055423022 0)
(-0.01098306876 0.1189457948 8.741120337e-22)
(-0.02682539441 0.1608183268 -2.316743617e-23)
(-0.04569344187 0.1829178259 8.723937626e-22)
(-0.06570959257 0.1908020637 -2.369202291e-23)
(-0.08620054296 0.1881613694 2.646345679e-23)
(-0.1068664361 0.1769454448 -2.622188157e-23)
(-0.12757881 0.157759345 -1.536749626e-23)
(-0.1481761615 0.1303533437 -4.86948832e-22)
(-0.1683159041 0.09410265191 -8.231062324e-24)
(-0.1873400191 0.04845716355 8.930871718e-24)
(-0.2041202589 -0.006607274739 3.099365337e-22)
(-0.2169144331 -0.0700632369 -5.389550805e-22)
(-0.2231671168 -0.139046471 0)
(-0.2194223855 -0.2078573381 8.117911476e-22)
(-0.201637976 -0.2665885851 -4.287127333e-22)
(-0.1663591657 -0.2999819929 -1.363792322e-23)
(-0.1132979038 -0.2883700338 0)
(-0.05234779341 -0.214390622 -1.386849675e-22)
(-0.004671409375 -0.08176275986 2.857894449e-22)
(-0.0004569704443 0.05686082235 1.477721841e-23)
(-0.01110152046 0.1325845175 -8.342698237e-22)
(-0.0256493088 0.1782555381 -1.10759977e-21)
(-0.04208282819 0.2018820436 -8.18864696e-22)
(-0.05862723289 0.210190064 0)
(-0.07491777831 0.2076076595 3.307901001e-23)
(-0.09098093396 0.1964746359 -6.856136162e-23)
(-0.1070449934 0.1775273892 5.504080729e-23)
(-0.1233580641 0.1504526148 2.813607937e-22)
(-0.1400646965 0.1143877376 -1.057772514e-23)
(-0.1570838135 0.06835060863 0)
(-0.1739559946 0.01163971895 -3.368224486e-22)
(-0.1895780157 -0.05569566563 7.100079467e-22)
(-0.2018781894 -0.1320709497 8.407772362e-22)
(-0.2074366815 -0.2131292601 -4.904742789e-22)
(-0.2012067588 -0.2896540372 4.843579585e-22)
(-0.1771274747 -0.3447184722 9.014157776e-24)
(-0.1302976951 -0.3518578952 -9.158927812e-24)
(-0.06667843667 -0.279053033 -1.259162184e-22)
(-0.007021651202 -0.114738041 0)
(-0.00101301084 0.06365319048 -1.832118122e-23)
(-0.01253647224 0.1456814712 -1.278086112e-21)
(-0.02574066989 0.1935564146 1.047694055e-21)
(-0.03885138092 0.2170632006 6.480227607e-22)
(-0.05030287428 0.2244488418 5.773450681e-22)
(-0.06027776504 0.2209884604 6.353445383e-22)
(-0.06928356156 0.2094531304 -4.227439192e-23)
(-0.07799568765 0.1907605401 -3.296782264e-22)
(-0.08711977836 0.1646194132 2.050067477e-22)
(-0.09732177431 0.130047753 0)
(-0.1091515008 0.08576527707 0)
(-0.1229206803 0.03050410263 2.554735068e-22)
(-0.1384570409 -0.03663865189 8.511743029e-23)
(-0.1547029905 -0.1156459725 -2.608564887e-22)
(-0.1690924289 -0.2043105327 -5.192536609e-23)
(-0.1766458387 -0.2958005962 1.359994864e-22)
(-0.1695720177 -0.3740749209 -3.168794473e-22)
(-0.1377570328 -0.4081934584 -3.494003995e-23)
(-0.08042418682 -0.3490318104 1.257441289e-22)
(-0.01048264672 -0.1571037272 -6.309500267e-22)
(-0.002365613897 0.072278191 0)
(-0.01683891933 0.15912844 2.072088698e-21)
(-0.0289534612 0.2065441086 0)
(-0.03783711581 0.2272911886 -1.306435818e-21)
(-0.04240920564 0.2317128278 6.490744423e-23)
(-0.04383456741 0.2259911954 -5.92116818e-22)
(-0.04333303734 0.2132677724 -4.568837967e-22)
(-0.04212688462 0.1946008534 7.93560598e-22)
(-0.04138844993 0.1697440169 -1.79519746e-22)
(-0.04225757183 0.1376845775 0)
(-0.04584168094 0.09700593952 0)
(-0.05316789362 0.04610038548 2.57579601e-23)
(-0.06504791032 -0.01664490145 -5.804620738e-22)
(-0.08172660467 -0.09260595775 -4.166585447e-22)
(-0.1022629538 -0.1820172188 4.546823264e-22)
(-0.1231310928 -0.2818558394 -6.233205596e-22)
(-0.1367625144 -0.3801729705 8.037527832e-23)
(-0.1285730695 -0.4464931417 4.925280233e-23)
(-0.08969412395 -0.4160348675 5.744907486e-22)
(-0.01529777825 -0.2090664304 6.297610129e-22)
(-0.005272122145 0.08536867612 0)
(-0.02632696971 0.1743433958 1.490731849e-22)
(-0.03730294009 0.2168413203 -4.78844721e-23)
(-0.0403634198 0.2308812882 7.415095408e-22)
(-0.03553754467 0.2296264857 -6.77888555e-22)
(-0.0256829368 0.2200005561 4.587880412e-23)
(-0.01301610816 0.2052386631 -1.00966616e-22)
(0.0006152074618 0.1863381427 -3.249758396e-22)
(0.01361032463 0.1630109109 1.993343858e-22)
(0.02446800834 0.134239994 0)
(0.03168168373 0.09859587711 0)
(0.03368985874 0.05438366107 -2.818317103e-22)
(0.02885163273 -0.0003024888485 0)
(0.0156876577 -0.06766896317 -5.435188184e-22)
(-0.006842551349 -0.149918087 -1.037147168e-23)
(-0.03783048861 -0.2482289459 2.512034001e-23)
(-0.07276767602 -0.3576656762 2.086519593e-22)
(-0.09466529874 -0.4551503899 5.171615018e-24)
(-0.08819323172 -0.4672551748 -5.882829258e-22)
(-0.02112052052 -0.2682453814 0)
(-0.01116535266 0.108541641 0)
(-0.04336920202 0.1936383553 -8.64398471e-22)
(-0.05012839158 0.2235824849 -5.330763358e-22)
(-0.04282658256 0.2251697328 4.477369354e-22)
(-0.0238158223 0.2149251994 -1.81478206e-24)
(0.001428138343 0.1997826997 -4.459974535e-23)
(0.02954987816 0.1824063483 5.526162188e-22)
(0.05816506936 0.1633128694 -2.679644679e-23)
(0.0854314386 0.1419604036 -1.998640683e-22)
(0.1096906256 0.1172730901 3.052860226e-23)
(0.1292476787 0.08787938151 -3.341125355e-23)
(0.1422517295 0.05220410321 -3.622354982e-23)
(0.1464912226 0.008457842988 3.157392068e-22)
(0.1396145452 -0.04573834733 6.037247413e-22)
(0.1189179626 -0.1133881351 -5.050244009e-22)
(0.08247106113 -0.1989002794 -1.62902461e-22)
(0.0288504086 -0.3055695322 1.500107276e-22)
(-0.02582172617 -0.4227930602 7.277058463e-23)
(-0.06595967247 -0.4858030831 1.907653545e-21)
(-0.02522829653 -0.32810246 2.94832676e-21)
(-0.02001516026 0.1463679086 -4.340358057e-23)
(-0.06456778582 0.2111165526 4.367228218e-23)
(-0.05199370922 0.2167557921 9.890804666e-22)
(-0.021780498 0.1998164046 -5.459011292e-24)
(0.02048421722 0.1789199416 0)
(0.06675760606 0.1587419434 4.275254824e-23)
(0.1133913051 0.1400471682 -2.21714662e-22)
(0.1582143161 0.1222854399 -8.783440029e-23)
(0.1997236028 0.1044510503 3.57454172e-23)
(0.2365543628 0.08537922692 -1.652641693e-23)
(0.2671884392 0.06383651975 3.345078499e-23)
(0.2898333128 0.03852959653 -6.465586354e-23)
(0.3019551131 0.007969796679 -9.136681641e-23)
(0.3009563161 -0.02945612614 1.505904603e-22)
(0.283112789 -0.07665677454 0)
(0.2444229013 -0.1390656437 1.522851941e-22)
(0.179013015 -0.2261178198 2.540425396e-22)
(0.09452497632 -0.3439737476 0)
(-0.007506853096 -0.454734401 -3.664567734e-21)
(-0.01935097056 -0.3773045336 -2.886073636e-21)
(-0.02582885124 0.2279927039 -9.486696592e-22)
(-0.03983713377 0.2240386949 -1.380162316e-22)
(0.03640706272 0.180875977 -2.308938915e-22)
(0.1082421141 0.1445154578 -1.175988359e-22)
(0.1800467176 0.116395132 -4.273649291e-23)
(0.2464149041 0.09536468401 9.645952791e-23)
(0.3066146388 0.079225279 -1.379160665e-22)
(0.360589018 0.06601807119 1.263344479e-22)
(0.4082598888 0.05426501771 -8.373062559e-23)
(0.4492244509 0.04281809696 1.13924612e-25)
(0.4826270883 0.03072267708 1.494599397e-23)
(0.507044081 0.01713235655 7.843307217e-23)
(0.5205792309 0.001198524607 -1.786723585e-22)
(0.5207986387 -0.01797786779 -1.605663509e-22)
(0.5034701229 -0.04232555567 -4.257813548e-23)
(0.464621487 -0.07598583755 0)
(0.3943847744 -0.1284711197 -1.81635488e-22)
(0.2909682946 -0.2208246509 8.11460132e-22)
(0.119347407 -0.3524732593 1.626445488e-21)
(0.02660563316 -0.3774916013 2.169967982e-21)
(0.2143838407 0.1348375094 9.834641948e-22)
(0.2779266065 0.09882495658 0)
(0.4319919466 0.05816153576 -2.581291358e-22)
(0.5306174025 0.03844394799 -1.735649895e-22)
(0.6014522727 0.02615970417 0)
(0.6563950785 0.01822256689 -5.934666537e-23)
(0.7003337739 0.01305049445 6.241290245e-23)
(0.7360601598 0.009493509363 -1.746610915e-23)
(0.765198112 0.006806339898 2.800963116e-23)
(0.7884586199 0.00451866622 2.248392171e-23)
(0.8058595969 0.002317569962 0)
(0.8169500156 -2.688177208e-05 -2.814280305e-23)
(0.820700042 -0.002595457769 0)
(0.8156713578 -0.005612794371 2.712029291e-23)
(0.7988784242 -0.009549607221 1.44295113e-23)
(0.7679568668 -0.0149841246 -5.759917048e-23)
(0.7107070663 -0.02504497086 -2.517165241e-22)
(0.62356229 -0.04207649539 -6.891287137e-22)
(0.4230070748 -0.09186258183 0)
(0.2705586282 -0.1524178006 -2.116861437e-21)
)


// ************************************************************************* //
