/*--------------------------------*- C++ -*----------------------------------*\
  =========                 |
  \\      /  F ield         | OpenFOAM: The Open Source CFD Toolbox
   \\    /   O peration     | Website:  https://openfoam.org
    \\  /    A nd           | Version:  13
     \\/     M anipulation  |
\*---------------------------------------------------------------------------*/
FoamFile
{
    format      ascii;
    class       volScalarField;
    location    "32";
    object      p;
}
// * * * * * * * * * * * * * * * * * * * * * * * * * * * * * * * * * * * * * //

dimensions      [0 2 -2 0 0 0 0];

internalField   nonuniform List<scalar> 
400
(
-3.744870263e-10
-0.0005221036959
-0.001156990537
-0.001645561102
-0.001869033171
-0.001778796562
-0.001351312701
-0.0005766275396
0.000535363592
0.001940264653
0.003544499786
0.005199151135
0.006710638901
0.007871729441
0.008510865595
0.008547824646
0.008036709487
0.007180182398
0.006305359577
0.005756604938
0.000528847538
-1.12782916e-05
-0.0005705436117
-0.0009600381785
-0.001125981338
-0.001042010394
-0.0006879709335
-4.984573705e-05
0.0008717191671
0.002047070836
0.003403032507
0.004816008052
0.00611907897
0.00712970384
0.007694482989
0.007740374753
0.007312525507
0.006579609129
0.005799236965
0.005240688533
0.001188552292
0.0005113022128
-7.964427409e-05
-0.0004355543564
-0.0005866665372
-0.0005405141837
-0.0002828980277
0.0002075388041
0.000945895805
0.001923771901
0.003091327952
0.004345963825
0.00553529638
0.006481175515
0.007024108478
0.007076873292
0.006664582218
0.005924467162
0.005059735145
0.004331663869
0.001660464375
0.0007867253506
8.079084977e-05
-0.0003176996683
-0.0005147208296
-0.0005503826426
-0.0004143528442
-7.342733782e-05
0.0005092779613
0.001351873544
0.002429363803
0.003655062412
0.004876884699
0.005897884159
0.006522913888
0.006621580355
0.006181092428
0.005311739353
0.00419853507
0.003170946066
0.001693497361
0.0006205721881
-0.0002264072644
-0.0007106526631
-0.001002641747
-0.001167634519
-0.001193270587
-0.001028470219
-0.0006078546958
0.0001203262772
0.001162325872
0.002451119077
0.003831661045
0.005075132329
0.005925994359
0.006177949016
0.005750183925
0.004713880239
0.003255969168
0.001833568726
0.001079991031
-0.0001710372708
-0.001160970693
-0.001759841831
-0.002192876309
-0.00254263682
-0.002788540096
-0.002855424082
-0.002641665186
-0.002051409513
-0.001034116456
0.0003774483912
0.002033555937
0.003670589332
0.004950515702
0.005549835069
0.005270083099
0.004105764314
0.002243485727
0.0003283287092
-0.0003550619372
-0.001752696801
-0.002879409652
-0.00361915312
-0.004243464263
-0.004846253134
-0.005394535365
-0.005784242313
-0.005869494467
-0.005496422043
-0.004548561037
-0.003002670859
-0.0009742234035
0.001249353684
0.003232465511
0.00448503907
0.004614820235
0.003462343759
0.001175559559
-0.001343606083
-0.002747409659
-0.004253921207
-0.005507432449
-0.006413947746
-0.007284358033
-0.008221135261
-0.009178337715
-0.01002125045
-0.01055335464
-0.01054812918
-0.009797656717
-0.008179880663
-0.005735754817
-0.002739346152
0.0002818315655
0.002624163783
0.003597733861
0.002754113057
0.0001005800295
-0.003135571271
-0.006182011409
-0.007754992883
-0.009120004291
-0.01021320752
-0.01138057034
-0.01273481832
-0.01422132849
-0.01567767816
-0.01685441585
-0.01744001524
-0.01710726526
-0.01558967129
-0.01278893373
-0.008897324106
-0.004489785491
-0.0005036492843
0.001956753921
0.001949904986
-0.0008626412632
-0.004894523828
-0.01068346364
-0.01227622878
-0.01372511838
-0.01500367713
-0.01649428488
-0.01832786727
-0.02045090106
-0.02268157248
-0.02472126713
-0.02616804446
-0.02655417593
-0.02542423045
-0.02246843573
-0.01769669847
-0.01163215166
-0.005402867941
-0.0006154629662
0.001036430959
-0.001475186777
-0.006274481296
-0.01621569854
-0.01777611406
-0.01925509599
-0.02066983034
-0.02245194176
-0.02476735405
-0.02757865581
-0.03069706551
-0.03378416191
-0.03635133865
-0.03778265715
-0.03740362558
-0.03463413744
-0.0291858597
-0.02138056655
-0.01239947713
-0.004343628473
8.877245896e-05
-0.001300471668
-0.006605226592
-0.02270025392
-0.02416544919
-0.02557143579
-0.02698705666
-0.02892809757
-0.03162466025
-0.03507385247
-0.03909231275
-0.04331230517
-0.04716865112
-0.04990574565
-0.05063168547
-0.04843902103
-0.0426764758
-0.03329194607
-0.02128957471
-0.009098616943
-0.0005563555805
0.0004297116049
-0.004695934666
-0.03006492614
-0.03134371977
-0.03248554919
-0.03363134954
-0.03545461852
-0.03829395375
-0.04219786927
-0.04699324406
-0.05228617845
-0.05744224175
-0.0615788419
-0.06359857978
-0.062297308
-0.056603443
-0.04597058496
-0.03096664386
-0.01401840349
4.748064076e-06
0.00505263154
0.001446857846
-0.03834504651
-0.03926343993
-0.03979074202
-0.04020067708
-0.04145540512
-0.04405636102
-0.04810730209
-0.0534317544
-0.0595950532
-0.06588666409
-0.07130347205
-0.07456561514
-0.07420101722
-0.06874715711
-0.05712546998
-0.03927439457
-0.01720562063
0.003596221807
0.0148243167
0.01497873285
-0.04788611053
-0.04803267433
-0.04729622971
-0.04623860883
-0.04630132392
-0.04818239991
-0.05200775846
-0.05755259312
-0.06430077045
-0.07143624378
-0.07782169345
-0.08200079883
-0.08226114334
-0.07680158435
-0.06406003792
-0.04329561688
-0.01576113763
0.01311870696
0.03317251344
0.04043729279
-0.05969066279
-0.05808337985
-0.05487205206
-0.05127168928
-0.04939571797
-0.05006750445
-0.0533272824
-0.05881542263
-0.06586644073
-0.07350826704
-0.08043391488
-0.0849911163
-0.08522656371
-0.07902703873
-0.06441214797
-0.04003267128
-0.006236971155
0.03233370558
0.06450594209
0.08327734267
-0.07600728787
-0.07048754894
-0.06248987628
-0.05485082509
-0.05027120217
-0.04935385586
-0.05183610949
-0.05709585921
-0.06423576926
-0.07206915804
-0.07907859203
-0.083384715
-0.08276617314
-0.07476679635
-0.05696615055
-0.02742303959
0.0144439142
0.06538745637
0.1142964684
0.1500867169
-0.103979859
-0.08777873288
-0.06989205049
-0.05622839621
-0.04833429298
-0.04569204741
-0.04741371995
-0.05246111523
-0.05961635196
-0.067442322
-0.07420225444
-0.07778722748
-0.07570038273
-0.06508442082
-0.04292341366
-0.006370761096
0.04654301685
0.1151383211
0.1913297863
0.2581312739
-0.1758247593
-0.1147653474
-0.07357054668
-0.05189862641
-0.04119405897
-0.03754004737
-0.03916599394
-0.04452495115
-0.0520296161
-0.06003281581
-0.06666431047
-0.06966706526
-0.06635428355
-0.05353039555
-0.02745581485
0.01622311573
0.08248872447
0.1771275202
0.3051713679
0.4525005879
-0.3556966662
-0.1551324635
-0.07037623799
-0.04277993073
-0.0313570389
-0.02756992178
-0.02967789047
-0.03578020307
-0.04395553782
-0.05242219191
-0.05928038087
-0.06227078093
-0.05865954372
-0.04510514151
-0.01729050151
0.03067652133
0.1082330203
0.2331516421
0.43460365
0.735686156
)
;

boundaryField
{
    movingWall
    {
        type            zeroGradient;
    }
    fixedWalls
    {
        type            zeroGradient;
    }
    frontAndBack
    {
        type            empty;
    }
}


// ************************************************************************* //
