/*--------------------------------*- C++ -*----------------------------------*\
  =========                 |
  \\      /  F ield         | OpenFOAM: The Open Source CFD Toolbox
   \\    /   O peration     | Website:  https://openfoam.org
    \\  /    A nd           | Version:  13
     \\/     M anipulation  |
\*---------------------------------------------------------------------------*/
FoamFile
{
    format      ascii;
    class       surfaceScalarField;
    location    "32";
    object      phi;
}
// * * * * * * * * * * * * * * * * * * * * * * * * * * * * * * * * * * * * * //

dimensions      [0 3 -1 0 0 0 0];

internalField   nonuniform List<scalar> 
760
(
4.352063572e-06
-4.352026714e-06
-3.888666436e-05
4.323911974e-05
-0.0001308624322
9.197540785e-05
-0.0002557843747
0.0001249225166
-0.0003978545528
0.000142070275
-0.0005437888274
0.0001459345499
-0.0006818217389
0.000138032323
-0.0008003425228
0.0001185210771
-0.0008873394926
8.699726168e-05
-0.0009310754043
4.373632473e-05
-0.000921967245
-9.107141537e-06
-0.0008553140689
-6.665176131e-05
-0.0007340795499
-0.0001212340537
-0.0005707717704
-0.000163307319
-0.0003872890977
-0.0001834817149
-0.0002119319625
-0.0001753568142
-7.356211049e-05
-0.0001383702639
6.181984353e-06
-7.974415516e-05
2.223863028e-05
-1.605604801e-05
2.223831191e-05
-4.697748922e-05
4.262503869e-05
-0.0002079487716
0.0002042104215
-0.0004697019505
0.0003537285439
-0.0007998753409
0.0004550960305
-0.001164465631
0.0005066602075
-0.001532190555
0.0005136612622
-0.001873833186
0.0004796749189
-0.002160797477
0.0004054854896
-0.002364999661
0.0002912010348
-0.002460859859
0.0001395999685
-0.002429283532
-4.068148293e-05
-0.002262726409
-0.0002332061611
-0.001970184634
-0.0004137732532
-0.001580176941
-0.0005533140234
-0.001140033357
-0.000623624998
-0.0007099461677
-0.0006054434367
-0.0003514380696
-0.0004968774252
-0.0001116718202
-0.0003195094988
-6.265662004e-06
-0.0001214627814
1.597203479e-05
-0.0001108574442
0.0001534826833
-0.0004019043513
0.0004952576423
-0.0008274197045
0.0007792439995
-0.001338768117
0.0009664468196
-0.001889416213
0.001057308392
-0.002436252208
0.001060496827
-0.00293836976
0.0009817925227
-0.00335586638
0.0008229839778
-0.003650365174
0.0005857024735
-0.003787839987
0.0002770798714
-0.003743479481
-8.503952854e-05
-0.003507654381
-0.0004690309752
-0.003091758433
-0.0008296684523
-0.002532150389
-0.001112919974
-0.001890131361
-0.001265642875
-0.001245755963
-0.001249820316
-0.0006841516993
-0.001058483371
-0.0002755019449
-0.0007281598896
-5.34702838e-05
-0.0003434961756
-3.749823643e-05
-0.0001716059615
0.0003250880604
-0.0005881677907
0.0009118202029
-0.001168286141
0.001359360984
-0.001844639314
0.00164280045
-0.00255970778
0.001772375509
-0.003262272441
0.001763061101
-0.003904217102
0.001623738192
-0.004438734171
0.00135750319
-0.004820797658
0.0009677670872
-0.005010048046
0.0004663324916
-0.00497572663
-0.000119359722
-0.004702966857
-0.0007417898243
-0.004199630077
-0.001333004341
-0.003502238308
-0.001810311334
-0.002678745004
-0.002089137221
-0.00182480825
-0.002103758893
-0.001050275352
-0.001833016552
-0.0004554674957
-0.001322969666
-0.0001032713765
-0.0006956930708
-0.0001407696583
-0.0002257200626
0.0005508082468
-0.000755857259
0.001441958183
-0.001476180266
0.002079683344
-0.00230122755
0.002467848506
-0.003163942293
0.002635089804
-0.004007745534
0.002606864327
-0.004780745278
0.002396737926
-0.005432539246
0.002009297487
-0.005913786457
0.001449014858
-0.006178320539
0.000730867479
-0.006187499207
-0.0001101825038
-0.005916464196
-0.001012825712
-0.005362436092
-0.001887031651
-0.004553858505
-0.002618889118
-0.00355830824
-0.00308468975
-0.00248436128
-0.003177707321
-0.001470984767
-0.002846392247
-0.0006601298066
-0.002133825871
-0.0001575422406
-0.001198280025
-0.0002983115535
-0.0002714820941
0.0008222900396
-0.0008986814148
0.002069156701
-0.001739851932
0.002920853789
-0.002694104267
0.003422100293
-0.003687031904
0.00362801575
-0.00465928067
0.003579112085
-0.005558133302
0.003295591178
-0.006332399015
0.002783562804
-0.006930360346
0.00204697496
-0.007300344828
0.001100851646
-0.007393900528
-1.662763728e-05
-0.007171449209
-0.00123527676
-0.006612204953
-0.002446274391
-0.005727101499
-0.003503992058
-0.00457394272
-0.004237849276
-0.003268596723
-0.004483052968
-0.001981976495
-0.004133011865
-0.0009111601502
-0.003204640821
-0.0002238121339
-0.001885628663
-0.0005221239952
-0.0003071041403
0.00112939438
-0.001010684189
0.002772735856
-0.001948088064
0.00385825618
-0.003006758388
0.004480768997
-0.004107579651
0.004728835445
-0.005190992746
0.004662522778
-0.006206251723
0.004310849932
-0.007104192437
0.003681502076
-0.007833084526
0.002775864654
-0.008337106295
0.001604872411
-0.008557362182
0.0002036295824
-0.008436959755
-0.001355675864
-0.007930568099
-0.002952664135
-0.007021463165
-0.004413097253
-0.0057445545
-0.005514758124
-0.004210795049
-0.006016811446
-0.00261920294
-0.005724605276
-0.001234109826
-0.004589731923
-0.0003115174349
-0.002808223956
-0.0008336423671
-0.0003307489445
0.001460142982
-0.001085962073
0.003527947851
-0.002089298375
0.004861589274
-0.003220492868
0.005611961179
-0.004398340116
0.005906681792
-0.005565499508
0.005829680169
-0.006675932211
0.005421282813
-0.007685623141
0.004691191944
-0.008546174749
0.003636415465
-0.0092007949
0.002259493017
-0.009582816549
0.0005856537519
-0.009618176357
-0.001320312293
-0.009233994477
-0.003336845967
-0.008376707035
-0.005270387181
-0.007042086933
-0.006849379035
-0.005315271997
-0.00774362638
-0.003407184238
-0.007632695493
-0.001653472623
-0.006343443909
-0.0004310183682
-0.004030681034
-0.001264661186
-0.0003411782537
0.001801320635
-0.001120106561
0.004306874867
-0.002153674477
0.005895154634
-0.003317375967
0.006775661374
-0.004530150293
0.007119456179
-0.005739015022
0.007038543919
-0.00690527923
0.006587547796
-0.007993539913
0.005779451428
-0.008963199326
0.00460607472
-0.00976197429
0.003058268773
-0.01032140223
0.001145081943
-0.01055562142
-0.001086093443
-0.01036628839
-0.003526180779
-0.009658075143
-0.005978601893
-0.008371510266
-0.008135943704
-0.006537345431
-0.009577790226
-0.004345263188
-0.009824777144
-0.002187611596
-0.008501096374
-0.0005932285054
-0.005625063222
-0.001857889801
-0.0003388450239
0.002140164991
-0.001112838242
0.005080866572
-0.002137258419
0.006919573154
-0.003285750993
0.007924153287
-0.004479174479
0.008312881073
-0.005670827465
0.008230197039
-0.006831896002
0.007748616617
-0.007939197897
0.006886750608
-0.008965143334
0.005632018677
-0.009869192077
0.003962317941
-0.01059035209
0.001866241606
-0.01104126894
-0.0006351790239
-0.01110749912
-0.003459951988
-0.01065483554
-0.006431263669
-0.009558384152
-0.009232392831
-0.007764013396
-0.01137215954
-0.005390236509
-0.01219855193
-0.002840938154
-0.01105039554
-0.0008090321349
-0.007656969013
-0.002666923613
-0.000327378142
0.002467542426
-0.001071535137
0.005825023145
-0.002047294018
0.007895332659
-0.003127380157
0.00900423935
-0.004236307692
0.009421810784
-0.00533584919
0.009329739218
-0.006409665122
0.008822431979
-0.007450251344
0.007927333444
-0.008448119521
0.006629884455
-0.009382086307
0.004896283575
-0.01020962735
0.002693782603
-0.01085543004
1.062330682e-05
-0.01120603745
-0.003109342632
-0.01110145998
-0.006535838414
-0.01035413585
-0.009979717022
-0.008803093085
-0.01292320451
-0.006437622656
-0.01456402574
-0.003591468737
-0.0138965522
-0.001087606395
-0.0101608365
-0.003754530483
-0.0003155196519
0.002783061856
-0.001015409758
0.006524913615
-0.00190799224
0.008787917622
-0.002864579345
0.009960826973
-0.003816231693
0.01037346476
-0.004736752893
0.01025026033
-0.005625460379
0.009711138661
-0.006493610362
0.008795481511
-0.007353729958
0.007490003552
-0.008209967226
0.005752520208
-0.009047433426
0.003531247018
-0.009820377274
0.0007835659895
-0.01043229401
-0.002497424708
-0.01072469643
-0.006243436018
-0.01046744749
-0.01023696719
-0.009391734628
-0.01399891628
-0.00730922539
-0.01664653639
-0.004374136406
-0.01683163991
-0.001432383772
-0.01310259265
-0.005186912878
-0.0003198764157
0.003102938625
-0.0009802835875
0.007185321096
-0.001765560673
0.009573197248
-0.002544859697
0.01074012722
-0.003262191633
0.01109079809
-0.003910055193
0.01089812197
-0.004508023978
0.01030910576
-0.005088826523
0.009376283536
-0.005688927558
0.008090104633
-0.006340493188
0.006404085166
-0.007062120664
0.004252873507
-0.007845835071
0.001567280863
-0.008636507372
-0.001706751538
-0.009305375919
-0.00557456996
-0.009618944482
-0.009923400386
-0.009230395184
-0.01438746175
-0.007757336056
-0.01811959393
-0.005064434364
-0.01952453971
-0.001832897306
-0.01633412879
-0.007019812993
-0.000369395558
0.003472334376
-0.00102394563
0.007839870717
-0.001690456405
0.01023970891
-0.002238921217
0.01128859281
-0.002640369037
0.01149224811
-0.002917912558
0.01117566416
-0.003118148944
0.01050934047
-0.003297707576
0.00955584279
-0.003516624658
0.008309022788
-0.003833569718
0.006721027739
-0.004299920683
0.004719221085
-0.004949768167
0.002217128018
-0.005781617782
-0.0008749021518
-0.006726532715
-0.004629654817
-0.007597704975
-0.009052227269
-0.008032358058
-0.01395280789
-0.00748835923
-0.01866359431
-0.005469036452
-0.0215438639
-0.002250581677
-0.01955258317
-0.009270395202
-0.0005121120853
0.00398444662
-0.001229763012
0.008557521344
-0.001769986725
0.01077993215
-0.002021064959
0.01153966997
-0.002009986019
0.01148117073
-0.001809675176
0.01097535409
-0.001502668458
0.01020233355
-0.001171461463
0.009224635792
-0.0008972537633
0.008034814915
-0.0007602392088
0.006584013154
-0.0008386461312
0.004797630525
-0.001204373676
0.002582859927
-0.001911393819
-0.0001678826954
-0.002968666337
-0.003572381552
-0.00428332687
-0.007737566507
-0.005560400458
-0.0126757375
-0.006190846913
-0.01803314869
-0.005322442946
-0.02241226307
-0.00259607611
-0.02227894824
-0.01186647208
-0.0008172966129
0.004801743383
-0.00169323861
0.009433463282
-0.002062770576
0.01114946451
-0.00189350939
0.01137040724
-0.001325487571
0.01091314741
-0.0005085796448
0.01015844632
0.0004299109594
0.009263843656
0.001381863419
0.008272683898
0.002249828326
0.007166849375
0.002939679816
0.005894160746
0.003355598098
0.004381712928
0.003398110029
0.002540347612
0.00296698431
0.0002632379009
0.001976201497
-0.002581595569
0.0003987854727
-0.006160143358
-0.001619008655
-0.01065793964
-0.003543276087
-0.0161088836
-0.004278857593
-0.02167668612
-0.002695179397
-0.02386262169
-0.01456165105
-0.001352016567
0.006153759566
-0.002429040264
0.01051048535
-0.002404760547
0.01112518623
-0.001524693182
0.01049033772
-0.0001436371005
0.009532088251
0.001488138719
0.008526669283
0.003201946824
0.007550039174
0.00487459779
0.006600037414
0.006404808309
0.005636641426
0.007697107319
0.004601863974
0.008650898224
0.003427924727
0.009153245661
0.002038001916
0.009074394621
0.0003420890751
0.008270154973
-0.001777355826
0.006601160482
-0.004491151532
0.004018631251
-0.008075408554
0.0008192659606
-0.01290951587
-0.001899868685
-0.01895755119
-0.002261698744
-0.02350079516
-0.01682335105
-0.002135798132
0.008289557141
-0.002925736311
0.01130041854
-0.001696801085
0.009896249813
0.0005176722887
0.008275864307
0.003090441117
0.006959318253
0.005731813635
0.005885296787
0.008289350432
0.004992504558
0.01066681333
0.004222575867
0.01279005386
0.003513401506
0.01458569014
0.002806231337
0.01596782318
0.002045795476
0.01682926891
0.001176555173
0.01703264821
0.0001387130169
0.01640560026
-0.001150308486
0.01473207085
-0.00281762792
0.0117771291
-0.005120469992
0.007450028389
-0.008582416562
0.002438576498
-0.01394610011
-0.0008879316678
-0.02017428669
-0.01771128117
-0.002486241143
0.01077579786
-1.121088701e-05
0.008825382137
0.00417662968
0.005708404358
0.008322289028
0.004130205143
0.01211123175
0.003170377302
0.01551312046
0.002483410729
0.0185294906
0.001976138233
0.02116650582
0.001585564631
0.0234211051
0.001258804717
0.02527090383
0.0009564345368
0.02666895873
0.0006477410488
0.02753746829
0.0003080443159
0.02776281132
-8.662351109e-05
0.02718482294
-0.0005723187807
0.02556554194
-0.001198340368
0.02254317044
-0.002098100877
0.01761542006
-0.003654667283
0.01039865803
-0.006729341913
0.002473361616
-0.01224898679
-0.01523792043
0.01077579774
0.01960117988
0.02530958343
0.02943978746
0.03261016491
0.03509357751
0.03706971772
0.03865528235
0.03991408729
0.04087052423
0.04151826533
0.04182630663
0.0417396854
0.04116736127
0.0399690219
0.03787091863
0.03421625215
0.02748690945
0.01523792063
)
;

boundaryField
{
    movingWall
    {
        type            calculated;
        value           uniform 0;
    }
    fixedWalls
    {
        type            calculated;
        value           uniform 0;
    }
    frontAndBack
    {
        type            empty;
    }
}


// ************************************************************************* //
