/*--------------------------------*- C++ -*----------------------------------*\
  =========                 |
  \\      /  F ield         | OpenFOAM: The Open Source CFD Toolbox
   \\    /   O peration     | Website:  https://openfoam.org
    \\  /    A nd           | Version:  13
     \\/     M anipulation  |
\*---------------------------------------------------------------------------*/
FoamFile
{
    format      ascii;
    class       volVectorField;
    location    "32";
    object      U;
}
// * * * * * * * * * * * * * * * * * * * * * * * * * * * * * * * * * * * * * //

dimensions      [0 1 -1 0 0 0 0];

internalField   nonuniform List<vector> 
400
(
(0.0001784616579 -0.0001822250116 0)
(-0.0001433019798 3.337103582e-05 0)
(-0.001528482137 0.0002693109743 0)
(-0.003760056594 0.0004192207601 0)
(-0.006493999564 0.0004982661919 0)
(-0.009431587613 0.0005279162055 0)
(-0.01232514204 0.0005179687907 0)
(-0.01494376594 0.0004675396807 0)
(-0.01705018955 0.0003701136314 0)
(-0.01840125824 0.0002205141995 0)
(-0.01877454907 2.202900015e-05 0)
(-0.01801681013 -0.000208161197 0)
(-0.01610243577 -0.0004365787496 0)
(-0.01318378873 -0.0006172925266 0)
(-0.009611576309 -0.0007022601671 0)
(-0.005905179683 -0.0006567690352 0)
(-0.00266409289 -0.0004742929686 0)
(-0.0004257417268 -0.0001846596955 0)
(0.0005243959199 0.0001320295468 0)
(0.0003047923229 0.0002978965701 0)
(-4.985483703e-05 0.0001420763022 0)
(-0.002059898006 0.001917662594 0)
(-0.006368556554 0.003724976142 0)
(-0.01245177733 0.004973961349 0)
(-0.01956110142 0.005630531883 0)
(-0.02703217303 0.005770367069 0)
(-0.03426645465 0.005444241727 0)
(-0.04068902519 0.004659331745 0)
(-0.04572766786 0.003406535454 0)
(-0.04883129578 0.001705006113 0)
(-0.0495324613 -0.000354331135 0)
(-0.04754308406 -0.002580566905 0)
(-0.04286152198 -0.004681340009 0)
(-0.0358589967 -0.006298484062 0)
(-0.02730840454 -0.007082897314 0)
(-0.01832186419 -0.006798248424 0)
(-0.01017576497 -0.00542645459 0)
(-0.004031209238 -0.003243023831 0)
(-0.0005891253108 -0.0008704008668 0)
(0.0002158730213 0.0005732253838 0)
(-0.0003519343727 0.001705826121 0)
(-0.004433316777 0.00640099378 0)
(-0.01173209039 0.0105616191 0)
(-0.02134839058 0.01337450961 0)
(-0.03220097118 0.0147913654 0)
(-0.04338739324 0.01493859636 0)
(-0.05407859584 0.0139058441 0)
(-0.06346833849 0.01171660723 0)
(-0.07076445411 0.008384641351 0)
(-0.07522370125 0.004002773426 0)
(-0.07623238634 -0.001173551703 0)
(-0.07342018142 -0.006676079965 0)
(-0.06678457478 -0.01182879411 0)
(-0.05679557345 -0.01582485022 0)
(-0.04444256417 -0.01788208732 0)
(-0.03117999475 -0.0174620205 0)
(-0.01873182877 -0.01450336782 0)
(-0.008752161264 -0.009595526946 0)
(-0.002417951247 -0.004053569117 0)
(3.034979016e-05 2.016532616e-06 0)
(-0.0006255064617 0.004546730697 0)
(-0.006723010158 0.01352148709 0)
(-0.01688966805 0.02068682125 0)
(-0.02978215237 0.02534292821 0)
(-0.04398419099 0.02755332456 0)
(-0.05841464564 0.02753478467 0)
(-0.07210005909 0.02542683625 0)
(-0.08409444009 0.02127681467 0)
(-0.09346936297 0.01513601776 0)
(-0.09935118202 0.007195963802 0)
(-0.1010028265 -0.002087962035 0)
(-0.09793992501 -0.0119230297 0)
(-0.09006635348 -0.02118366845 0)
(-0.07780783822 -0.02852111315 0)
(-0.0622087258 -0.03259481533 0)
(-0.04493661677 -0.0324206748 0)
(-0.02812206927 -0.02777428451 0)
(-0.0139963021 -0.01951778995 0)
(-0.004412888748 -0.009712992521 0)
(-0.0001292709399 -0.001536902302 0)
(-0.0008611686537 0.008550230901 0)
(-0.00877315716 0.02305662275 0)
(-0.02154708817 0.03377852521 0)
(-0.03740390656 0.04045149828 0)
(-0.05461277925 0.04342156076 0)
(-0.07195812285 0.04307065684 0)
(-0.08838738154 0.03961449458 0)
(-0.1028862263 0.03312971004 0)
(-0.1144505181 0.02370110319 0)
(-0.1221085625 0.01160757173 0)
(-0.1249881599 -0.00251254466 0)
(-0.1224238366 -0.0175558905 0)
(-0.114103575 -0.03193775359 0)
(-0.1002474129 -0.04370477163 0)
(-0.08178957943 -0.05081638168 0)
(-0.06049878006 -0.05162331943 0)
(-0.03891939409 -0.04549284716 0)
(-0.02002770892 -0.03339097188 0)
(-0.006642413953 -0.01812664842 0)
(-0.000275040409 -0.00409965717 0)
(-0.001055809069 0.01356004848 0)
(-0.01050772258 0.03471315032 0)
(-0.02552265055 0.04949511486 0)
(-0.04394464631 0.05834657686 0)
(-0.0637788504 0.06206716749 0)
(-0.08372234872 0.06129435381 0)
(-0.1027005087 0.0563564107 0)
(-0.1196915601 0.04736119494 0)
(-0.1336667797 0.03440294239 0)
(-0.143582115 0.01780021809 0)
(-0.1484158109 -0.001691811065 0)
(-0.1472554295 -0.02272653677 0)
(-0.1394506431 -0.04330038437 0)
(-0.1248424605 -0.06081786421 0)
(-0.1040554789 -0.07237565324 0)
(-0.07878956891 -0.07535009554 0)
(-0.05195316417 -0.06829757447 0)
(-0.02743183227 -0.05195328574 0)
(-0.00938813672 -0.02981933409 0)
(-0.0004495426774 -0.0078355325 0)
(-0.001202418905 0.0193907321 0)
(-0.01185628763 0.04812051433 0)
(-0.02864661966 0.0674038149 0)
(-0.04912495987 0.07860095555 0)
(-0.07110028417 0.08311767583 0)
(-0.09323237187 0.08193891905 0)
(-0.1144781758 0.07554676881 0)
(-0.1338666543 0.0640797534 0)
(-0.1503990676 0.04760276838 0)
(-0.1629983496 0.02639816521 0)
(-0.1705035035 0.001230385365 0)
(-0.1717254106 -0.02643321771 0)
(-0.1655865355 -0.05426744308 0)
(-0.1513833485 -0.07905163549 0)
(-0.1291912857 -0.09687808663 0)
(-0.1003651706 -0.1037810815 0)
(-0.06797559692 -0.09692597741 0)
(-0.03687373246 -0.07622241562 0)
(-0.01301152297 -0.045640798 0)
(-0.0007039158051 -0.01307283703 0)
(-0.001292689432 0.02582016035 0)
(-0.012749634 0.06282381319 0)
(-0.03075133291 0.08695807473 0)
(-0.05264807822 0.1006567221 0)
(-0.07612405628 0.1060580818 0)
(-0.09984919043 0.1045826332 0)
(-0.1228622245 0.09691197599 0)
(-0.1443019369 0.08321787441 0)
(-0.1632654332 0.06349349798 0)
(-0.1787101628 0.03789560897 0)
(-0.1893968576 0.007063169275 0)
(-0.1938931463 -0.02758468653 0)
(-0.1906740653 -0.06357097377 0)
(-0.1783781743 -0.09716424887 0)
(-0.1562812167 -0.1234058652 0)
(-0.1250036249 -0.1366444827 0)
(-0.08734851665 -0.1319229663 0)
(-0.04893592207 -0.1073579033 0)
(-0.01790884695 -0.06676373904 0)
(-0.001101000133 -0.02034406784 0)
(-0.001321936576 0.03259242792 0)
(-0.01314133003 0.07829079391 0)
(-0.03170678037 0.1074953111 0)
(-0.05425003167 0.1237980937 0)
(-0.07839408894 0.1301691877 0)
(-0.1028593524 0.1285490411 0)
(-0.1268117345 0.1198723481 0)
(-0.1495598896 0.1043586514 0)
(-0.1703757484 0.08189880726 0)
(-0.1883512777 0.05244194693 0)
(-0.202286684 0.01636245078 0)
(-0.2106263935 -0.02516576428 0)
(-0.2114845093 -0.06976039103 0)
(-0.2028305832 -0.1134281113 0)
(-0.1829475668 -0.1502959659 0)
(-0.1512751775 -0.1728440067 0)
(-0.1096758662 -0.1732301595 0)
(-0.06392988264 -0.1463836537 0)
(-0.02448233447 -0.09460726335 0)
(-0.001723533175 -0.03039987109 0)
(-0.001296436675 0.03943922173 0)
(-0.01304595049 0.09394291925 0)
(-0.03148765078 0.1282553927 0)
(-0.05379433221 0.1471446775 0)
(-0.07757666973 0.1544904674 0)
(-0.1016396167 0.1528377252 0)
(-0.1253179809 0.1434396909 0)
(-0.1481494149 0.1265986008 0)
(-0.169666801 0.1020997382 0)
(-0.1892199796 0.06963347183 0)
(-0.2058150771 0.02919539716 0)
(-0.2179756137 -0.01848478749 0)
(-0.2236647453 -0.07141656403 0)
(-0.2203272103 -0.1257388518 0)
(-0.2052115879 -0.1750548327 0)
(-0.1761992867 -0.2101208686 0)
(-0.133388925 -0.2196597381 0)
(-0.08161904627 -0.1937168109 0)
(-0.03308553901 -0.1306498405 0)
(-0.002685153947 -0.0442177789 0)
(-0.001243346442 0.04612687433 0)
(-0.0125907525 0.1092225376 0)
(-0.03026234909 0.1484318332 0)
(-0.05139534063 0.1696767836 0)
(-0.07362241263 0.1778221566 0)
(-0.09587171259 0.1761077761 0)
(-0.1176928769 0.1661829323 0)
(-0.1389101365 0.1484899011 0)
(-0.1593992003 0.122740968 0)
(-0.1788916171 0.08836539698 0)
(-0.1967835531 0.04492118262 0)
(-0.2119270236 -0.00745903163 0)
(-0.2224504858 -0.0674991128 0)
(-0.225596207 -0.1319436057 0)
(-0.2177782237 -0.1945348291 0)
(-0.1951845997 -0.2449198027 0)
(-0.1553988776 -0.268383826 0)
(-0.1008392651 -0.2485038321 0)
(-0.04389613626 -0.1760668928 0)
(-0.00414058875 -0.06299283219 0)
(-0.00122428903 0.05253739868 0)
(-0.01208058421 0.1237041484 0)
(-0.02849363308 0.1672599652 0)
(-0.04754564729 0.1902960186 0)
(-0.06692383157 0.1987730739 0)
(-0.08574805675 0.1967275873 0)
(-0.103850552 0.1862856642 0)
(-0.1214018368 0.168098692 0)
(-0.1386854499 0.1418680966 0)
(-0.1559074376 0.1068109458 0)
(-0.1730022211 0.06206029813 0)
(-0.1894093679 0.007079932924 0)
(-0.2037603948 -0.05778312485 0)
(-0.2135473549 -0.1303899708 0)
(-0.214859019 -0.2054635053 0)
(-0.2024573757 -0.2726576765 0)
(-0.1710362699 -0.3146845781 0)
(-0.1191054593 -0.3078777648 0)
(-0.05666757325 -0.2311174994 0)
(-0.006288149554 -0.08807867145 0)
(-0.001357127013 0.05879663823 0)
(-0.01208251659 0.1372514679 0)
(-0.02704053596 0.1841298746 0)
(-0.04321211868 0.2079033131 0)
(-0.05840559499 0.2158369654 0)
(-0.07207455332 0.2128769541 0)
(-0.0844501006 0.2016867732 0)
(-0.09611938345 0.1831802628 0)
(-0.1078145826 0.1571150366 0)
(-0.1202552546 0.1225790217 0)
(-0.1339870858 0.07836477656 0)
(-0.1491698832 0.02331353689 0)
(-0.1652512272 -0.0432176642 0)
(-0.1804980726 -0.1205731115 0)
(-0.1913815725 -0.2052881059 0)
(-0.1920051114 -0.2885066022 0)
(-0.1744699496 -0.352246706 0)
(-0.1324072228 -0.3664153585 0)
(-0.07033999187 -0.2942453559 0)
(-0.009350982419 -0.1208044709 0)
(-0.001856678881 0.06547250719 0)
(-0.01354505409 0.1502126267 0)
(-0.02724386924 0.1986864011 0)
(-0.03983950005 0.2214462116 0)
(-0.04944538068 0.227447778 0)
(-0.05612859202 0.2226491694 0)
(-0.06071142375 0.2102463832 0)
(-0.06428537464 0.1914098857 0)
(-0.0680451378 0.1659861998 0)
(-0.07319705556 0.1330160229 0)
(-0.0808651466 0.09108172931 0)
(-0.09194558031 0.03856452125 0)
(-0.1068432739 -0.02605676826 0)
(-0.1250001658 -0.1036438819 0)
(-0.1440748358 -0.1931038604 0)
(-0.1587016521 -0.288584026 0)
(-0.1595270557 -0.3741377059 0)
(-0.1353550954 -0.4161817614 0)
(-0.08255457741 -0.3610271554 0)
(-0.01348667916 -0.1620087384 0)
(-0.003094527991 0.07386777517 0)
(-0.01794555417 0.1636201542 0)
(-0.0309083597 0.2108311104 0)
(-0.0390818433 0.2298413701 0)
(-0.04137349931 0.2319237309 0)
(-0.03897054387 0.2240596064 0)
(-0.03356687323 0.2098312046 0)
(-0.02685643046 0.1905482825 0)
(-0.02048247977 0.1661044915 0)
(-0.01605686989 0.1355341832 0)
(-0.01516452173 0.09733805352 0)
(-0.01932024118 0.04966177446 0)
(-0.02983108768 -0.009575255475 0)
(-0.04746232388 -0.08244164064 0)
(-0.07166893364 -0.1702269369 0)
(-0.09895586089 -0.2711295267 0)
(-0.1204434053 -0.3742750769 0)
(-0.1215293373 -0.4476351873 0)
(-0.08914357274 -0.4235043364 0)
(-0.01847801195 -0.211233762 0)
(-0.005586554233 0.08651551855 0)
(-0.02727628402 0.1792826776 0)
(-0.03974533052 0.2203604695 0)
(-0.04157227375 0.2315131039 0)
(-0.03370590551 0.2270870348 0)
(-0.01930554208 0.2147830864 0)
(-0.001264980484 0.1981629805 0)
(0.01806055061 0.1783969415 0)
(0.0366453443 0.1552858501 0)
(0.05260417113 0.1278381831 0)
(0.06406357488 0.09456718325 0)
(0.06909093234 0.05360900851 0)
(0.06568989404 0.002726151664 0)
(0.05192811535 -0.06075780801 0)
(0.02640690585 -0.1398800516 0)
(-0.01024326913 -0.2369683796 0)
(-0.05194294371 -0.3486841622 0)
(-0.08360078652 -0.4510878204 0)
(-0.08364216236 -0.4706280667 0)
(-0.0231216507 -0.2663548441 0)
(-0.009895293813 0.1087462164 0)
(-0.04308281241 0.1994880643 0)
(-0.05246278177 0.2255007929 0)
(-0.04219755247 0.2229212982 0)
(-0.01844848847 0.2091456007 0)
(0.01253979797 0.1913956868 0)
(0.04660841149 0.1723555757 0)
(0.08093510551 0.1525753169 0)
(0.1133582625 0.1315280014 0)
(0.1419724724 0.1081305328 0)
(0.1648666193 0.08097142711 0)
(0.1799524772 0.04836527019 0)
(0.1848461067 0.008286912785 0)
(0.1768288605 -0.04187645982 0)
(0.1529426544 -0.1058066719 0)
(0.1108109264 -0.1887817903 0)
(0.05175388211 -0.2957428867 0)
(-0.0129235191 -0.4175139775 0)
(-0.05696525349 -0.4886985663 0)
(-0.02467977058 -0.3238066757 0)
(-0.01779313811 0.1517461104 0)
(-0.06132242351 0.223655582 0)
(-0.05238068263 0.2175913014 0)
(-0.01460116259 0.1947767829 0)
(0.03502611754 0.1708390856 0)
(0.08807582602 0.1488371152 0)
(0.1405828952 0.129164917 0)
(0.190275133 0.1112220138 0)
(0.2355650786 0.09395757473 0)
(0.2750528489 0.07617825028 0)
(0.3072031633 0.05663424631 0)
(0.3301401433 0.03398377829 0)
(0.341475348 0.006695429039 0)
(0.3381990795 -0.02722368799 0)
(0.316488364 -0.07093297973 0)
(0.271740046 -0.1303577504 0)
(0.1997477639 -0.2163849594 0)
(0.1027090453 -0.3382863477 0)
(0.004190576845 -0.4567160177 0)
(-0.01599918706 -0.3692195904 0)
(-0.02419415596 0.2083315201 0)
(-0.03786780806 0.2304237274 0)
(0.03730242694 0.1765457719 0)
(0.1250232479 0.1368030586 0)
(0.2056932391 0.1089612533 0)
(0.2777493887 0.08809441248 0)
(0.3418766865 0.07200294589 0)
(0.3983815134 0.05909355297 0)
(0.4473281458 0.04797789877 0)
(0.4884869773 0.03752067763 0)
(0.5212037791 0.02676431303 0)
(0.5442348262 0.01485108958 0)
(0.5556820919 0.0009000647736 0)
(0.5528768479 -0.01616482068 0)
(0.5319860081 -0.03818043881 0)
(0.4875250668 -0.06907985934 0)
(0.411002485 -0.1190748094 0)
(0.2907841192 -0.2093538603 0)
(0.1330701891 -0.3382930024 0)
(0.03873088243 -0.3403433018 0)
(0.2419027022 0.1091527072 0)
(0.3135144374 0.09714568364 0)
(0.4444053424 0.05698005985 0)
(0.5497008213 0.03510338246 0)
(0.6240792167 0.02372143937 0)
(0.6795454163 0.01668665184 0)
(0.7233412592 0.01195987733 0)
(0.7585812601 0.008682833952 0)
(0.7868272428 0.006256329504 0)
(0.808883285 0.004244850613 0)
(0.8249282836 0.002350412521 0)
(0.8345851531 0.0003653910741 0)
(0.8369819455 -0.001887444382 0)
(0.8306879417 -0.004573576415 0)
(0.8133856639 -0.008019229602 0)
(0.7811697307 -0.01289001587 0)
(0.7257364667 -0.02124856973 0)
(0.6298924949 -0.03811289037 0)
(0.4592729948 -0.08557194059 0)
(0.3048895506 -0.1257008971 0)
)
;

boundaryField
{
    movingWall
    {
        type            fixedValue;
        value           uniform (1 0 0);
    }
    fixedWalls
    {
        type            fixedValue;
        value           uniform (0 0 0);
    }
    frontAndBack
    {
        type            empty;
    }
}


// ************************************************************************* //
