/*--------------------------------*- C++ -*----------------------------------*\
  =========                 |
  \\      /  F ield         | OpenFOAM: The Open Source CFD Toolbox
   \\    /   O peration     | Website:  https://openfoam.org
    \\  /    A nd           | Version:  13
     \\/     M anipulation  |
\*---------------------------------------------------------------------------*/
FoamFile
{
    format      ascii;
    class       volVectorField;
    location    "32";
    object      U_0;
}
// * * * * * * * * * * * * * * * * * * * * * * * * * * * * * * * * * * * * * //

dimensions      [0 1 -1 0 0 0 0];

internalField   nonuniform List<vector> 
400
(
(1.097237001e-05 -3.785471004e-05 0)
(-0.0006661306003 0.0004130378421 -1.549102733e-23)
(-0.002185381935 0.0009203912613 0)
(-0.004047830351 0.001312777507 0)
(-0.005971858317 0.00153506208 6.842226896e-25)
(-0.007762767806 0.001569844244 4.151190773e-24)
(-0.009284525856 0.001423560484 -7.363412632e-24)
(-0.01043591939 0.001119721015 7.54090477e-24)
(-0.01113679111 0.0006960814304 -2.096043595e-25)
(-0.0113270887 0.0002030776707 -3.995713037e-24)
(-0.01097175215 -0.0003002324156 5.804774821e-24)
(-0.01007231133 -0.0007475145322 -5.930601923e-23)
(-0.008679868403 -0.001075560624 -6.553756073e-23)
(-0.006902846512 -0.0012330426 -7.785432848e-23)
(-0.004910736341 -0.001192637554 4.574243716e-24)
(-0.002927233814 -0.0009619206528 -4.138579438e-24)
(-0.001205303176 -0.000591213093 -1.999173797e-22)
(-1.907264965e-05 -0.000169885096 0)
(0.0005181512264 0.0001720833256 1.511394517e-25)
(0.0002227507985 0.0003059776431 -2.576165268e-24)
(-0.0002633786943 0.0008289358793 1.384733478e-25)
(-0.00270331772 0.003383819868 1.558860695e-23)
(-0.006907272016 0.005604478593 1.551907649e-25)
(-0.01195229785 0.007008184435 -8.489439518e-25)
(-0.01713500586 0.007553753848 1.161245676e-24)
(-0.02197530166 0.007294180261 1.305825753e-23)
(-0.02611069726 0.006321879185 1.398579424e-24)
(-0.02926557671 0.004754183618 -7.29233132e-24)
(-0.03122665669 0.002737148313 1.015788341e-23)
(-0.031841938 0.0004524083826 4.511224058e-24)
(-0.03102754844 -0.001884136486 -6.320140816e-24)
(-0.02879310996 -0.004023016969 2.961906307e-24)
(-0.02527133972 -0.005708339588 3.89613728e-23)
(-0.02073191867 -0.006707394722 -1.95511483e-24)
(-0.01558960945 -0.006854128134 3.755178259e-24)
(-0.01038512798 -0.006097457284 -9.743271314e-23)
(-0.005730273328 -0.004546185401 9.639874079e-23)
(-0.00223337089 -0.002507422837 -3.964682613e-25)
(-0.0001817780229 -0.000502378495 4.064672457e-25)
(8.343554761e-05 0.0006099213713 0)
(-0.0004188262842 0.002935060937 -2.912130726e-25)
(-0.004647872948 0.008803980521 1.704283034e-23)
(-0.01137193906 0.01324037851 -8.261441725e-24)
(-0.01932724594 0.01579199129 -2.07216259e-25)
(-0.02747404738 0.01652995154 2.035683227e-25)
(-0.03511769642 0.01564437351 7.107275919e-27)
(-0.04171333884 0.01335994233 -1.230770386e-24)
(-0.04683559661 0.009919749905 -4.557580632e-25)
(-0.05014976431 0.005602426247 -1.063634411e-23)
(-0.0514121963 0.0007444277717 0)
(-0.05047781826 -0.004241760737 0)
(-0.0473369624 -0.008887157495 2.671508492e-23)
(-0.04215919654 -0.0126817339 2.813507429e-23)
(-0.03531431185 -0.01513601491 -1.646491075e-24)
(-0.02738992055 -0.01586186243 4.846974589e-23)
(-0.01917003492 -0.01467331669 9.421505087e-23)
(-0.01156089693 -0.01169358977 3.977915314e-23)
(-0.005465409288 -0.007450740076 4.148986967e-25)
(-0.001451099582 -0.002936048389 1.070125482e-25)
(-9.072639524e-05 0.000225870731 0)
(-0.0005024636633 0.006045326767 -4.251080213e-23)
(-0.006402727131 0.01637069957 -1.694500952e-23)
(-0.01553498611 0.02355925927 8.188282827e-24)
(-0.02627905158 0.02744154158 0)
(-0.03728736736 0.02832093929 0)
(-0.04769024623 0.026587653 0)
(-0.05679647883 0.0226311473 -4.49711777e-26)
(-0.06405367332 0.01683605759 -2.131513873e-24)
(-0.06901064085 0.009622171887 0)
(-0.07130810619 0.00149106211 1.636737284e-24)
(-0.07070837229 -0.006936470065 2.803605479e-25)
(-0.06713024766 -0.01493013711 -2.811455521e-25)
(-0.06069893145 -0.02166721892 0)
(-0.05180740611 -0.02631599099 4.134342589e-23)
(-0.04114984409 -0.02816064615 -4.682654687e-23)
(-0.02971965457 -0.02677367105 -2.763087185e-23)
(-0.01873713987 -0.02221527057 -3.963095593e-23)
(-0.009488016192 -0.01521920584 7.795880693e-25)
(-0.00297687647 -0.007298194221 9.78795475e-23)
(-0.0002318786686 -0.0008661739832 0)
(-0.0005316123782 0.01009498303 4.271753799e-23)
(-0.007983572398 0.02595211266 4.782037796e-25)
(-0.01939682269 0.03642871506 -4.672816895e-25)
(-0.03282373558 0.04185508196 0)
(-0.04664676425 0.04289473066 7.779392282e-25)
(-0.05985213765 0.04020063429 -7.671528486e-25)
(-0.0716327276 0.03434733503 3.671219953e-23)
(-0.08132730693 0.02585658953 1.847156583e-23)
(-0.08836579475 0.01527296574 6.236083577e-24)
(-0.09225447841 0.003246163464 -1.638644107e-24)
(-0.09260358919 -0.009407784011 0)
(-0.0891753632 -0.02167470513 4.372323724e-25)
(-0.08195962459 -0.03236735689 1.009581195e-23)
(-0.07126871578 -0.0402123993 -4.350444097e-23)
(-0.05782008173 -0.04402036412 1.933591012e-24)
(-0.04278575519 -0.04294820809 4.219517714e-23)
(-0.02775445744 -0.03683340626 -3.845338843e-25)
(-0.0145505999 -0.02652717368 0)
(-0.004859454586 -0.01408453377 5.436526597e-23)
(-0.0003641470258 -0.002846956564 -2.564827048e-22)
(-0.000527219969 0.01499923091 9.83917686e-23)
(-0.009377900813 0.03739010887 -4.90592336e-25)
(-0.02288176745 0.05170207591 0)
(-0.03883033381 0.0589416617 0)
(-0.05538642544 0.06025558165 -8.731062307e-23)
(-0.07142858755 0.05661886697 -8.498043182e-23)
(-0.08606633192 0.04880157677 -4.066371641e-23)
(-0.09855062803 0.03743973469 -1.503850974e-23)
(-0.1081942858 0.02315981382 -5.366450038e-24)
(-0.1143442237 0.006709698729 -8.173618611e-24)
(-0.1164043774 -0.01093285948 6.599659746e-24)
(-0.1138935115 -0.02848935192 8.823991707e-24)
(-0.1065484929 -0.04437033697 -1.892313134e-23)
(-0.09446786597 -0.0567531972 4.596064701e-24)
(-0.07826843008 -0.06378284557 0)
(-0.05922885296 -0.06393482723 -1.574052321e-23)
(-0.03933975351 -0.05653806302 -2.392376101e-26)
(-0.02114185332 -0.04235802714 0)
(-0.007318690586 -0.02398226636 -1.520401444e-22)
(-0.0005216150589 -0.005925543065 6.055766749e-22)
(-0.0004990811797 0.02064568431 -9.772151515e-23)
(-0.01052948447 0.0504542343 2.831747689e-22)
(-0.02582951264 0.06912492028 1.526744195e-22)
(-0.04402127908 0.07849236426 3.618942465e-24)
(-0.06310724561 0.08029455628 -7.319283992e-23)
(-0.08190386625 0.07588024754 9.042430053e-23)
(-0.09947741996 0.06621676567 -3.589881083e-24)
(-0.1150224964 0.05201685909 -1.728995509e-24)
(-0.1277516609 0.03392354823 2.523899586e-24)
(-0.1368469962 0.0127023512 7.381339278e-24)
(-0.1414707907 -0.01058775081 -6.499491034e-24)
(-0.1408245683 -0.03446012478 -9.785148965e-24)
(-0.1342743676 -0.05692756185 -3.261777164e-23)
(-0.1215448237 -0.07553298411 -3.65967227e-23)
(-0.1029671012 -0.08754242106 5.642273508e-25)
(-0.0797635746 -0.09039192378 0)
(-0.0542667414 -0.08244499422 0)
(-0.02987156354 -0.0639772691 -2.905685381e-24)
(-0.01066283489 -0.03798789673 2.97012622e-24)
(-0.0007350921512 -0.01050088524 1.027872362e-22)
(-0.0004479159656 0.02687243597 0)
(-0.01134920938 0.06480739625 2.001983177e-22)
(-0.02801594029 0.08829593503 8.962091612e-23)
(-0.04799847753 0.1001232366 0)
(-0.06920588438 0.1027074064 1.56977574e-22)
(-0.09044356 0.0978155689 0)
(-0.1107829654 0.08661086057 -1.428329761e-22)
(-0.1294091498 0.06983939179 6.515220185e-24)
(-0.1454769207 0.04808227376 0)
(-0.1580349299 0.02201757235 0)
(-0.1660130935 -0.007334361101 -1.374321518e-24)
(-0.1682669109 -0.03838826308 -9.315878101e-25)
(-0.1637062402 -0.06883957897 1.491862189e-22)
(-0.15152067 -0.09558254636 -4.704653324e-23)
(-0.1315132803 -0.1148296405 -2.560602465e-24)
(-0.1045594698 -0.1225701223 1.534358647e-24)
(-0.07309340264 -0.1155516069 -1.558562042e-24)
(-0.04135015981 -0.09283101561 0)
(-0.01525228194 -0.05740759799 3.203617163e-24)
(-0.001044307338 -0.01714712487 -1.012863791e-21)
(-0.0003744667491 0.03346295833 0)
(-0.01175004353 0.07998898198 -1.128179346e-22)
(-0.02920703516 0.1086388228 -6.190921594e-22)
(-0.05031737353 0.1232231045 -3.755192172e-22)
(-0.07296306451 0.1269094196 0)
(-0.09598946145 0.1219253161 4.119336779e-22)
(-0.118527182 0.10963467 1.260873306e-22)
(-0.1398144558 0.09078232919 -5.581655562e-24)
(-0.159021955 0.06581387258 5.554029363e-24)
(-0.1751458924 0.03520882347 0)
(-0.1869557881 -0.0001966660917 2.912054517e-23)
(-0.1930170575 -0.03889740018 4.695652633e-24)
(-0.1917807925 -0.0784386898 -1.076748178e-22)
(-0.1817872592 -0.1151863031 8.003618608e-23)
(-0.1620568802 -0.1442596894 -2.4196235e-22)
(-0.1327060652 -0.1598546047 0)
(-0.09577878197 -0.1563110549 0)
(-0.05601627019 -0.1302979259 0)
(-0.02147856694 -0.08381124102 0)
(-0.001500382472 -0.02665513061 5.571865563e-22)
(-0.0002873912233 0.0401606834 0)
(-0.01169358787 0.09543589228 -3.492904982e-22)
(-0.02924435764 0.1294070674 8.932569734e-22)
(-0.0506094255 0.1469295961 3.617068064e-22)
(-0.0737007559 0.1519745585 0)
(-0.09745141941 0.1472755267 -3.862441855e-22)
(-0.1211068743 0.1344189838 -3.174355489e-23)
(-0.1440323564 0.1141391906 3.33304159e-22)
(-0.1655141931 0.08670000004 1.769442687e-22)
(-0.1846247173 0.05229124425 -4.060082853e-23)
(-0.2001324446 0.01141724278 1.656818338e-23)
(-0.210462108 -0.03471409608 -8.265053465e-24)
(-0.2137207183 -0.08376543558 3.371792864e-22)
(-0.2078214189 -0.1318753907 0)
(-0.1908237298 -0.1732753405 2.420792467e-22)
(-0.1616334632 -0.2002590562 5.774391076e-24)
(-0.1211661801 -0.204011903 -5.860504319e-24)
(-0.07384983906 -0.1772117748 1.548318351e-22)
(-0.02971784197 -0.1188640902 -5.435062365e-24)
(-0.002179542567 -0.04005394107 0)
(-0.0002117221407 0.04671630428 0)
(-0.01125001309 0.1105495834 0)
(-0.02815624289 0.1497351946 -5.022644456e-22)
(-0.04874478298 0.1701514274 -1.880961433e-23)
(-0.07100084624 0.176625394 2.038340896e-23)
(-0.09399448566 0.1724523722 -2.01427384e-23)
(-0.1171433942 0.1594868814 -2.316844329e-23)
(-0.1400179113 0.138480364 -3.029765806e-22)
(-0.1621328495 0.1095160047 6.698601666e-23)
(-0.1827958655 0.07245187901 4.513099053e-23)
(-0.2009835187 0.02734936841 -4.577641199e-23)
(-0.215226989 -0.02508683522 0)
(-0.2235561805 -0.08298331871 -7.83937305e-23)
(-0.2234631723 -0.1427254956 0)
(-0.2120678879 -0.1981818187 -3.739494363e-22)
(-0.1867433939 -0.2400770825 5.244823415e-22)
(-0.1464437709 -0.2560770581 0)
(-0.0939456303 -0.2331207036 -1.493868442e-22)
(-0.04021998515 -0.1639611955 1.937421053e-22)
(-0.003201097413 -0.05861057083 -3.411400676e-22)
(-0.0002015439237 0.05297575952 0)
(-0.01067263228 0.1248170159 9.182740764e-22)
(-0.02628449105 0.1687421574 -2.440647252e-23)
(-0.04501110972 0.1916451846 9.193214527e-22)
(-0.0649460116 0.199291788 -2.51204923e-23)
(-0.0853663265 0.1956101571 2.838805421e-23)
(-0.1059306115 0.1827884728 -2.812891836e-23)
(-0.1264924723 0.1616582137 -1.660897711e-23)
(-0.1468997462 0.1321761703 -5.260167193e-22)
(-0.1668458846 0.09389648062 -8.906525861e-24)
(-0.1857303763 0.04640584314 9.660092749e-24)
(-0.2024782431 -0.01023771207 3.313047881e-22)
(-0.2154155295 -0.07499802278 -5.820677055e-22)
(-0.2220210253 -0.1450309673 0)
(-0.2188032431 -0.2146758164 8.887196016e-22)
(-0.201625761 -0.2740013759 -4.940763949e-22)
(-0.1668639068 -0.3075809222 -1.572183307e-23)
(-0.1140219865 -0.2953809381 0)
(-0.05288480188 -0.2195800694 -1.890056924e-22)
(-0.004749185405 -0.08377270619 3.36046068e-22)
(-0.0003642021298 0.05902309671 1.550990853e-23)
(-0.01049576376 0.1379879465 -8.764074413e-22)
(-0.02441394508 0.1856801303 -1.157046081e-21)
(-0.04026731729 0.2101381655 -8.628871035e-22)
(-0.05630738924 0.2182345922 0)
(-0.07214867641 0.21461877 3.513766648e-23)
(-0.08779234334 0.2018790014 -7.294788727e-23)
(-0.1034564215 0.1810004404 5.867825161e-23)
(-0.1193985437 0.1518996787 3.021335167e-22)
(-0.1357933225 0.1139150811 -1.128185497e-23)
(-0.1526084072 0.0662143326 0)
(-0.169452313 0.008177332356 -3.603896829e-22)
(-0.185276227 -0.06015971395 7.515607683e-22)
(-0.1980450011 -0.1372745135 8.831636884e-22)
(-0.2043547472 -0.2189259812 -5.29656362e-22)
(-0.1990978452 -0.2959710657 5.162627931e-22)
(-0.1760605776 -0.3514070197 1.078194272e-23)
(-0.1300890744 -0.3584148435 -1.095508692e-23)
(-0.06688802693 -0.2843274609 -8.216566762e-23)
(-0.007083317884 -0.1169963599 0)
(-0.0009095816049 0.06540035059 -1.91146722e-23)
(-0.01167595058 0.1502814686 -1.326953257e-21)
(-0.02388889232 0.2000657118 1.094225246e-21)
(-0.03601351361 0.224421422 6.734865755e-22)
(-0.04657323068 0.2316585578 6.014575347e-22)
(-0.05577055734 0.2272391417 6.64389653e-22)
(-0.06411265388 0.2141773189 -4.458638447e-23)
(-0.07227583257 0.1936493392 -3.461309826e-22)
(-0.08096996099 0.1656028029 2.152146521e-22)
(-0.090872165 0.1292707701 0)
(-0.1025549919 0.08353091065 0)
(-0.1163624602 0.02720022987 2.655380966e-22)
(-0.1321591906 -0.04061991507 8.194335964e-23)
(-0.1489254471 -0.1200126737 -2.82159453e-22)
(-0.1641286134 -0.2089299041 -5.411232708e-23)
(-0.1727879066 -0.3006990764 1.301950577e-22)
(-0.1670312271 -0.379332723 -3.400441425e-22)
(-0.1365292917 -0.413645003 -1.594445701e-23)
(-0.08018251158 -0.3538324481 8.205337734e-23)
(-0.01050762235 -0.1594129736 -6.032279358e-22)
(-0.002260502475 0.07348879041 0)
(-0.01580359595 0.1626520455 2.145855837e-21)
(-0.02665051308 0.2117902777 0)
(-0.03422353269 0.2333945002 -1.35179587e-21)
(-0.03759416648 0.2377764591 6.184062502e-23)
(-0.03799707173 0.2312551607 -6.193037925e-22)
(-0.03668290681 0.2171897605 -4.756246386e-22)
(-0.0348906316 0.196893372 8.301191026e-22)
(-0.03378866001 0.1703342229 -1.885684049e-22)
(-0.03449904978 0.1367221479 0)
(-0.03811601037 0.09479682035 0)
(-0.04565019909 0.04304297901 2.410622357e-23)
(-0.05790830389 -0.02013768457 -6.007163363e-22)
(-0.0751462261 -0.0962063725 -4.309540108e-22)
(-0.0964519626 -0.1855554911 4.637833967e-22)
(-0.1183464369 -0.2853566528 -6.488671927e-22)
(-0.1332716679 -0.383838523 9.119876994e-23)
(-0.1265351752 -0.4504357332 2.937966936e-23)
(-0.0889915672 -0.4198535015 5.660499052e-22)
(-0.01526918081 -0.2111718976 6.020911875e-22)
(-0.005180903006 0.08598043689 0)
(-0.02525554726 0.1766290337 1.465580381e-22)
(-0.03483417224 0.2205960152 -4.917106545e-23)
(-0.03640028689 0.2354857637 7.642866445e-22)
(-0.03018503029 0.2343405015 -7.005317948e-22)
(-0.01916603725 0.2241602369 4.74644312e-23)
(-0.005615421887 0.2083524733 -1.018602986e-22)
(0.008569317424 0.1881240477 -3.389863451e-22)
(0.02179856192 0.1633911174 2.06280942e-22)
(0.03262751815 0.1333243102 0)
(0.03958429986 0.09664093519 0)
(0.04116986391 0.05174066091 -2.9026522e-22)
(0.03578458883 -0.00325529255 0)
(0.0219816198 -0.07058350451 -5.512159137e-22)
(-0.001265046803 -0.1525734562 -1.492360601e-23)
(-0.03310486791 -0.2505949002 2.559706444e-23)
(-0.06909249334 -0.3599340697 2.203085488e-22)
(-0.09227835854 -0.4575423724 4.788440167e-24)
(-0.08718093518 -0.4698128515 -5.789471208e-22)
(-0.02103127524 -0.2698971709 0)
(-0.01111631731 0.1085974951 0)
(-0.04248905121 0.194715127 -8.848420931e-22)
(-0.04795536994 0.2258194671 -5.411006711e-22)
(-0.0391954943 0.2282134419 4.543784415e-22)
(-0.01877848983 0.2182326915 -1.709986123e-24)
(0.007664082973 0.2028219249 -4.561013541e-23)
(0.03667967218 0.1847618936 5.696637599e-22)
(0.06582970606 0.1647117724 -2.766871645e-23)
(0.09327102361 0.1423128079 -2.069768236e-22)
(0.1173888822 0.11662752 3.142194859e-23)
(0.1365459058 0.08641149401 -3.425898718e-23)
(0.1489666851 0.05017676437 -3.690576161e-23)
(0.1525273625 0.006159249003 3.205617778e-22)
(0.144936515 -0.04796119122 6.119574923e-22)
(0.1235158165 -0.1153052229 -5.101141061e-22)
(0.08633520014 -0.2004195112 -1.616032625e-22)
(0.03199077547 -0.3067806172 1.531333186e-22)
(-0.02362131555 -0.423983672 7.29368663e-23)
(-0.06492416466 -0.4871612305 1.913296491e-21)
(-0.02509972171 -0.3291544366 2.954996979e-21)
(-0.02004680348 0.1460727508 -4.390189227e-23)
(-0.06416407721 0.2112955783 4.417361868e-23)
(-0.05070235349 0.2177300108 1.000182846e-21)
(-0.01934106348 0.2014679364 -8.27043376e-24)
(0.02414451427 0.1809075442 0)
(0.07154104392 0.1606932635 4.363686869e-23)
(0.1190701322 0.1416494923 -2.273833957e-22)
(0.1644765047 0.1233181464 -9.027885116e-23)
(0.2062248797 0.1048117187 3.680707162e-23)
(0.2429640708 0.08507141439 -1.701645533e-23)
(0.2732205413 0.06296151033 3.429952004e-23)
(0.2952534174 0.03726298518 -6.592645656e-23)
(0.3066969373 0.006535120839 -9.303868773e-23)
(0.3049736888 -0.03087764962 1.517034287e-22)
(0.2863935087 -0.07786286736 0)
(0.2470567156 -0.1399300075 1.505582515e-22)
(0.1810921483 -0.2266299617 2.560016808e-22)
(0.09604444616 -0.3443894779 0)
(-0.006697644656 -0.4552210037 -3.675642833e-21)
(-0.01922408671 -0.3777537421 -2.892626271e-21)
(-0.02591950986 0.2276828909 -9.514192062e-22)
(-0.03998324079 0.2238216601 -1.388971147e-22)
(0.03656136341 0.1810585284 -2.33556749e-22)
(0.1090502752 0.1451058869 -1.193734715e-22)
(0.181719058 0.1172445178 -4.295793311e-23)
(0.2490089779 0.09627904299 9.783081173e-23)
(0.3100335452 0.08002507591 -1.408578487e-22)
(0.3646207865 0.06656813465 1.297164672e-22)
(0.4126250912 0.05449178228 -8.620056912e-23)
(0.4536248714 0.04270895472 1.13219443e-25)
(0.4867877233 0.03032299976 1.527732813e-23)
(0.5107450046 0.01652904089 7.997160828e-23)
(0.5236596365 0.0005365379792 -1.811113674e-22)
(0.5231797179 -0.01863370955 -1.617136428e-22)
(0.5052322804 -0.04286477101 -4.262890045e-23)
(0.4658714646 -0.07633230014 0)
(0.3952696181 -0.1286089347 -1.846493117e-22)
(0.2916070808 -0.2208468086 8.148779221e-22)
(0.1197454961 -0.3525016891 1.631604163e-21)
(0.02670546894 -0.3775497956 2.172657189e-21)
(0.2142894505 0.1347447239 9.864975577e-22)
(0.2776311296 0.09870503967 0)
(0.4316592414 0.05810415024 -2.594307731e-22)
(0.5304749401 0.03846264873 -1.741653835e-22)
(0.6016965664 0.02623418837 0)
(0.6571198696 0.01831923135 -6.009027238e-23)
(0.7015213172 0.01313600567 6.377934581e-23)
(0.7376041942 0.009542124958 -1.800138999e-23)
(0.7669367791 0.006804464069 2.885947876e-23)
(0.7902106058 0.00446474616 2.315015313e-23)
(0.8074554443 0.002221323507 0)
(0.8182620893 -0.0001500704961 -2.873015515e-23)
(0.8216499384 -0.002723843624 0)
(0.8162394002 -0.005712665153 2.738118912e-23)
(0.7991333063 -0.00961138077 1.421661221e-23)
(0.7679986333 -0.0150025505 -5.799434185e-23)
(0.7106555771 -0.02502520045 -2.535670123e-22)
(0.623518399 -0.04204285515 -6.918114109e-22)
(0.4230091017 -0.09182968193 0)
(0.2705674686 -0.1524021846 -2.119485023e-21)
)
;

boundaryField
{
    movingWall
    {
        type            calculated;
        value           uniform (1 0 0);
    }
    fixedWalls
    {
        type            calculated;
        value           uniform (0 0 0);
    }
    frontAndBack
    {
        type            empty;
    }
}


// ************************************************************************* //
