/*--------------------------------*- C++ -*----------------------------------*\
  =========                 |
  \\      /  F ield         | OpenFOAM: The Open Source CFD Toolbox
   \\    /   O peration     | Website:  https://openfoam.org
    \\  /    A nd           | Version:  13
     \\/     M anipulation  |
\*---------------------------------------------------------------------------*/
FoamFile
{
    format      ascii;
    class       vectorField;
    location    "32";
    object      U_all;
}
// * * * * * * * * * * * * * * * * * * * * * * * * * * * * * * * * * * * * * //


400
(
(1.097242239e-05 -3.785469757e-05 0)
(-0.0006661305057 0.0004130378538 -1.54913625e-23)
(-0.002185381859 0.0009203912434 0)
(-0.0040478303 0.001312777457 0)
(-0.005971858378 0.001535062067 6.842501133e-25)
(-0.007762767957 0.001569844341 4.151600016e-24)
(-0.009284525958 0.001423560658 -7.363905949e-24)
(-0.01043591937 0.001119721148 7.540386722e-24)
(-0.01113679103 0.0006960814347 -2.096175389e-25)
(-0.0113270887 0.0002030775549 -3.99582624e-24)
(-0.01097175233 -0.0003002325484 5.804868425e-24)
(-0.01007231165 -0.0007475146075 -5.930552532e-23)
(-0.008679868747 -0.001075560608 -6.553693733e-23)
(-0.00690284673 -0.001233042501 -7.785347826e-23)
(-0.00491073633 -0.001192637381 4.574236031e-24)
(-0.002927233601 -0.0009619204063 -4.138597582e-24)
(-0.001205302975 -0.0005912127915 -1.999184913e-22)
(-1.907275341e-05 -0.000169884781 0)
(0.0005181507841 0.0001720836365 1.511373372e-25)
(0.0002227505931 0.0003059776203 -2.5758771e-24)
(-0.0002633786524 0.0008289359002 1.384704606e-25)
(-0.002703317685 0.003383819919 1.558896459e-23)
(-0.006907272126 0.005604478718 1.551964962e-25)
(-0.01195229796 0.00700818454 -8.488869638e-25)
(-0.01713500587 0.007553753919 1.161178378e-24)
(-0.02197530164 0.007294180366 1.305900312e-23)
(-0.02611069737 0.006321879341 1.398233533e-24)
(-0.02926557705 0.004754183755 -7.291861118e-24)
(-0.03122665722 0.00273714835 1.015735143e-23)
(-0.03184193852 0.0004524083246 4.511357831e-24)
(-0.03102754885 -0.001884136634 -6.320250796e-24)
(-0.02879311025 -0.004023017062 2.961498144e-24)
(-0.02527133993 -0.005708339541 3.896049615e-23)
(-0.02073191878 -0.006707394497 -1.955092021e-24)
(-0.01558960941 -0.006854127721 3.755136498e-24)
(-0.01038512781 -0.006097456701 -9.743183866e-23)
(-0.00573027321 -0.004546184739 9.639917903e-23)
(-0.002233371053 -0.002507422273 -3.964758833e-25)
(-0.0001817787957 -0.0005023781721 4.064750941e-25)
(8.34349559e-05 0.0006099214461 0)
(-0.0004188262731 0.002935060955 -2.912122909e-25)
(-0.004647872898 0.008803980511 1.704320871e-23)
(-0.01137193907 0.01324037871 -8.26268305e-24)
(-0.01932724609 0.01579199168 -2.072108484e-25)
(-0.02747404764 0.01652995196 2.035630311e-25)
(-0.03511769678 0.01564437382 7.143922758e-27)
(-0.04171333929 0.01335994244 -1.230414963e-24)
(-0.04683559714 0.009919749862 -4.55774327e-25)
(-0.05014976486 0.005602426131 -1.063578599e-23)
(-0.05141219688 0.0007444276331 0)
(-0.05047781882 -0.00424176085 0)
(-0.04733696282 -0.00888715758 2.671550674e-23)
(-0.04215919683 -0.01268173397 2.813528444e-23)
(-0.03531431196 -0.01513601494 -1.646493386e-24)
(-0.02738992041 -0.01586186235 4.846970794e-23)
(-0.01917003464 -0.01467331645 9.421420045e-23)
(-0.01156089688 -0.01169358945 3.977852267e-23)
(-0.005465409775 -0.00745073987 4.148953977e-25)
(-0.001451100446 -0.002936048452 1.070106929e-25)
(-9.072695151e-05 0.0002258708862 0)
(-0.0005024636647 0.006045326893 -4.251065779e-23)
(-0.006402727112 0.01637069972 -1.694542246e-23)
(-0.01553498604 0.02355925952 8.189548629e-24)
(-0.02627905169 0.02744154196 0)
(-0.03728736768 0.02832093976 0)
(-0.04769024678 0.02658765349 0)
(-0.05679647958 0.02263114773 -4.499814539e-26)
(-0.06405367419 0.01683605787 -2.131190004e-24)
(-0.06901064177 0.009622171945 0)
(-0.07130810703 0.001491061907 1.636719378e-24)
(-0.07070837298 -0.006936470422 2.803563647e-25)
(-0.06713024823 -0.01493013761 -2.811413551e-25)
(-0.06069893188 -0.02166721954 0)
(-0.05180740628 -0.02631599166 4.134354894e-23)
(-0.04114984393 -0.02816064678 -4.682650658e-23)
(-0.02971965424 -0.02677367155 -2.763073704e-23)
(-0.0187371398 -0.02221527095 -3.963032031e-23)
(-0.009488016696 -0.01521920614 7.795839208e-25)
(-0.002976877239 -0.00729819439 9.787979371e-23)
(-0.0002318790904 -0.0008661738291 0)
(-0.000531612366 0.01009498323 4.271740154e-23)
(-0.007983572439 0.02595211317 4.781794727e-25)
(-0.01939682273 0.03642871558 -4.672580545e-25)
(-0.03282373576 0.04185508248 0)
(-0.04664676461 0.04289473116 7.779645951e-25)
(-0.05985213824 0.04020063476 -7.671778057e-25)
(-0.07163272844 0.03434733549 3.671270137e-23)
(-0.081327308 0.02585658993 1.847130891e-23)
(-0.08836579596 0.01527296599 6.236009445e-24)
(-0.09225447961 0.003246163492 -1.638626177e-24)
(-0.0926035903 -0.009407784324 0)
(-0.08917536417 -0.02167470579 4.372277003e-25)
(-0.08195962533 -0.03236735783 1.009572113e-23)
(-0.07126871614 -0.0402124004 -4.350455802e-23)
(-0.05782008162 -0.0440203652 1.933589447e-24)
(-0.04278575482 -0.04294820906 4.219498876e-23)
(-0.02775445727 -0.03683340704 -3.845301946e-25)
(-0.01455060025 -0.0265271742 0)
(-0.00485945511 -0.01408453392 5.436534633e-23)
(-0.0003641473115 -0.002846956332 -2.564831985e-22)
(-0.00052721992 0.01499923107 9.839272782e-23)
(-0.009377900801 0.0373901095 -4.906035e-25)
(-0.02288176759 0.0517020767 0)
(-0.0388303341 0.05894166252 0)
(-0.05538642592 0.0602555824 -8.731027509e-23)
(-0.0714285882 0.05661886759 -8.498042472e-23)
(-0.08606633277 0.04880157726 -4.0664251e-23)
(-0.09855062911 0.03743973511 -1.50385295e-23)
(-0.1081942871 0.02315981415 -5.36637899e-24)
(-0.1143442252 0.006709698905 -8.173613896e-24)
(-0.1164043789 -0.01093285957 6.599639588e-24)
(-0.1138935129 -0.02848935234 8.823961479e-24)
(-0.106548494 -0.0443703377 -1.892302817e-23)
(-0.09446786663 -0.05675319816 4.596123655e-24)
(-0.07826843015 -0.06378284661 0)
(-0.05922885267 -0.06393482824 -1.574046286e-23)
(-0.0393397533 -0.0565380639 -2.392543042e-26)
(-0.02114185346 -0.04235802772 0)
(-0.007318690813 -0.02398226648 -1.520404752e-22)
(-0.0005216151876 -0.005925542811 6.055775255e-22)
(-0.0004990810849 0.02064568454 -9.772246166e-23)
(-0.01052948438 0.0504542349 2.831755848e-22)
(-0.02582951275 0.06912492118 1.526749542e-22)
(-0.04402127939 0.07849236526 3.618935878e-24)
(-0.06310724615 0.08029455722 -7.319306364e-23)
(-0.08190386696 0.07588024832 9.042430458e-23)
(-0.0994774208 0.06621676626 -3.58987761e-24)
(-0.1150224974 0.05201685952 -1.729000933e-24)
(-0.1277516621 0.03392354855 2.523906913e-24)
(-0.1368469977 0.01270235142 7.381332625e-24)
(-0.1414707924 -0.01058775074 -6.499471968e-24)
(-0.14082457 -0.03446012491 -9.785114944e-24)
(-0.1342743691 -0.05692756222 -3.261771314e-23)
(-0.1215448247 -0.07553298472 -3.659673902e-23)
(-0.1029671016 -0.08754242188 5.642277688e-25)
(-0.07976357455 -0.09039192472 0)
(-0.05426674126 -0.08244499514 0)
(-0.02987156353 -0.06397726976 -2.905686722e-24)
(-0.01066283487 -0.03798789693 2.970127574e-24)
(-0.0007350921282 -0.01050088514 1.027870243e-22)
(-0.0004479158939 0.02687243637 0)
(-0.01134920931 0.06480739694 2.00197123e-22)
(-0.02801594032 0.08829593602 8.962059801e-23)
(-0.0479984778 0.1001232376 0)
(-0.06920588491 0.1027074074 1.56977456e-22)
(-0.0904435607 0.09781556972 0)
(-0.1107829662 0.08661086117 -1.428329262e-22)
(-0.1294091507 0.06983939217 6.515217272e-24)
(-0.1454769217 0.04808227397 0)
(-0.1580349311 0.02201757243 0)
(-0.1660130949 -0.007334361106 -1.374321811e-24)
(-0.1682669125 -0.03838826318 -9.31585875e-25)
(-0.1637062417 -0.06883957921 1.491860988e-22)
(-0.1515206712 -0.09558254683 -4.704652821e-23)
(-0.131513281 -0.1148296412 -2.560599756e-24)
(-0.1045594701 -0.1225701232 1.534358969e-24)
(-0.07309340266 -0.1155516079 -1.558562379e-24)
(-0.04135015973 -0.09283101639 0)
(-0.01525228179 -0.05740759838 3.203617484e-24)
(-0.001044307224 -0.01714712502 -1.012863958e-21)
(-0.0003744667404 0.03346295873 0)
(-0.0117500435 0.07998898284 -1.128178193e-22)
(-0.02920703515 0.1086388239 -6.190922278e-22)
(-0.05031737376 0.1232231057 -3.75519321e-22)
(-0.072963065 0.1269094207 0)
(-0.09598946208 0.121925317 4.119338947e-22)
(-0.1185271827 0.1096346706 1.260872806e-22)
(-0.1398144564 0.09078232944 -5.581655306e-24)
(-0.1590219557 0.06581387259 5.554029111e-24)
(-0.1751458932 0.0352088233 0)
(-0.1869557891 -0.0001966663668 2.912055558e-23)
(-0.1930170587 -0.03889740051 4.695653373e-24)
(-0.1917807938 -0.07843869019 -1.076747768e-22)
(-0.1817872604 -0.1151863036 8.003613797e-23)
(-0.1620568811 -0.1442596901 -2.419623542e-22)
(-0.1327060657 -0.1598546057 0)
(-0.09577878218 -0.1563110559 0)
(-0.05601627015 -0.1302979268 0)
(-0.0214785668 -0.08381124157 0)
(-0.001500382363 -0.02665513092 5.571865779e-22)
(-0.0002873912216 0.04016068369 0)
(-0.01169358779 0.09543589323 -3.492902322e-22)
(-0.02924435756 0.1294070687 8.932566744e-22)
(-0.05060942568 0.1469295975 3.617069153e-22)
(-0.07370075634 0.1519745597 0)
(-0.09745141994 0.1472755277 -3.862443933e-22)
(-0.1211068748 0.1344189844 -3.174356477e-23)
(-0.1440323568 0.1141391908 3.33304213e-22)
(-0.1655141935 0.08669999993 1.769442898e-22)
(-0.1846247177 0.05229124388 -4.060083445e-23)
(-0.2001324451 0.01141724226 1.656818131e-23)
(-0.2104621087 -0.03471409667 -8.265055476e-24)
(-0.2137207191 -0.08376543618 3.37179343e-22)
(-0.2078214198 -0.1318753914 0)
(-0.1908237306 -0.1732753412 2.420792509e-22)
(-0.1616334638 -0.200259057 5.774393197e-24)
(-0.1211661805 -0.2040119039 -5.860506482e-24)
(-0.07384983915 -0.1772117756 1.548319406e-22)
(-0.02971784196 -0.1188640908 -5.435065088e-24)
(-0.002179542536 -0.04005394136 0)
(-0.0002117220915 0.0467163045 0)
(-0.01125001287 0.1105495843 0)
(-0.02815624268 0.1497351959 -5.022643042e-22)
(-0.04874478303 0.1701514288 -1.880961176e-23)
(-0.07100084654 0.1766253954 2.038340951e-23)
(-0.09399448602 0.1724523734 -2.014273894e-23)
(-0.1171433944 0.1594868823 -2.316844753e-23)
(-0.1400179114 0.1384803644 -3.029766278e-22)
(-0.1621328495 0.1095160047 6.698602436e-23)
(-0.1827958654 0.07245187863 4.513099703e-23)
(-0.2009835186 0.02734936778 -4.577642036e-23)
(-0.215226989 -0.02508683597 0)
(-0.2235561807 -0.08298331947 -7.839376345e-23)
(-0.2234631727 -0.1427254963 0)
(-0.2120678884 -0.1981818194 -3.73949478e-22)
(-0.1867433944 -0.2400770834 5.24482426e-22)
(-0.1464437712 -0.2560770589 0)
(-0.09394563052 -0.2331207044 -1.493869469e-22)
(-0.04021998528 -0.1639611961 1.937422134e-22)
(-0.00320109746 -0.05861057101 -3.411401931e-22)
(-0.000201543837 0.05297575975 0)
(-0.01067263193 0.1248170167 9.182742064e-22)
(-0.02628449065 0.1687421587 -2.440647845e-23)
(-0.04501110952 0.191645186 9.193215432e-22)
(-0.06494601159 0.1992917894 -2.512049216e-23)
(-0.08536632654 0.1956101584 2.838805458e-23)
(-0.1059306115 0.1827884739 -2.812891871e-23)
(-0.1264924722 0.1616582144 -1.660897864e-23)
(-0.1468997459 0.1321761705 -5.260167666e-22)
(-0.1668458842 0.09389648036 -8.906526735e-24)
(-0.1857303757 0.04640584252 9.660093419e-24)
(-0.2024782424 -0.01023771291 3.313048026e-22)
(-0.215415529 -0.07499802372 -5.820677384e-22)
(-0.222021025 -0.1450309682 0)
(-0.218803243 -0.2146758173 8.887196691e-22)
(-0.2016257611 -0.2740013768 -4.940764741e-22)
(-0.166863907 -0.3075809231 -1.572183567e-23)
(-0.1140219867 -0.2953809389 0)
(-0.05288480206 -0.21958007 -1.890057986e-22)
(-0.004749185475 -0.08377270634 3.360461915e-22)
(-0.0003642020322 0.05902309696 1.550990809e-23)
(-0.01049576333 0.1379879472 -8.764075616e-22)
(-0.0244139445 0.1856801315 -1.157046212e-21)
(-0.0402673168 0.2101381668 -8.628871891e-22)
(-0.05630738884 0.2182345936 0)
(-0.07214867605 0.2146187714 3.513766664e-23)
(-0.08779234297 0.2018790025 -7.294788783e-23)
(-0.1034564211 0.1810004412 5.867825267e-23)
(-0.1193985432 0.1518996791 3.02133538e-22)
(-0.1357933218 0.1139150809 -1.128185552e-23)
(-0.1526084063 0.06621433203 0)
(-0.169452312 0.008177331483 -3.603896992e-22)
(-0.1852762261 -0.06015971499 7.515607931e-22)
(-0.1980450003 -0.1372745146 8.831637135e-22)
(-0.2043547466 -0.2189259823 -5.296563904e-22)
(-0.1990978449 -0.2959710667 5.162628229e-22)
(-0.1760605775 -0.3514070207 1.078194506e-23)
(-0.1300890745 -0.3584148444 -1.095508929e-23)
(-0.06688802704 -0.2843274616 -8.216557609e-23)
(-0.007083317926 -0.1169963601 0)
(-0.0009095814959 0.06540035085 -1.911467166e-23)
(-0.01167595013 0.1502814693 -1.326953208e-21)
(-0.02388889166 0.2000657128 1.094225369e-21)
(-0.03601351291 0.224421423 6.734866544e-22)
(-0.04657322994 0.2316585588 6.014575955e-22)
(-0.05577055657 0.2272391427 6.643896902e-22)
(-0.06411265316 0.2141773197 -4.458638498e-23)
(-0.07227583189 0.1936493398 -3.461309884e-22)
(-0.08096996027 0.1656028032 2.152146568e-22)
(-0.09087216414 0.1292707701 0)
(-0.1025549908 0.08353091025 0)
(-0.116362459 0.02720022918 2.655381088e-22)
(-0.1321591893 -0.04061991596 8.194336981e-23)
(-0.148925446 -0.1200126747 -2.821594535e-22)
(-0.1641286125 -0.2089299051 -5.411232898e-23)
(-0.1727879058 -0.3006990774 1.30195066e-22)
(-0.1670312267 -0.3793327239 -3.400441797e-22)
(-0.1365292915 -0.413645004 -1.594442011e-23)
(-0.08018251155 -0.3538324489 8.205328593e-23)
(-0.01050762235 -0.159412974 -6.032278639e-22)
(-0.002260502354 0.0734887907 0)
(-0.01580359554 0.1626520462 2.145855788e-21)
(-0.0266505125 0.2117902784 0)
(-0.03422353193 0.2333945009 -1.351796002e-21)
(-0.03759416551 0.2377764597 6.184062437e-23)
(-0.03799707064 0.2312551613 -6.193038275e-22)
(-0.03668290574 0.217189761 -4.756246613e-22)
(-0.03489063061 0.1968933724 8.301191252e-22)
(-0.03378865906 0.1703342232 -1.885684089e-22)
(-0.03449904879 0.136722148 0)
(-0.03811600928 0.09479682026 0)
(-0.04565019791 0.04304297871 2.410622442e-23)
(-0.05790830269 -0.02013768507 -6.007163636e-22)
(-0.07514622496 -0.09620637315 -4.309540288e-22)
(-0.09645196157 -0.1855554918 4.637834208e-22)
(-0.1183464361 -0.2853566536 -6.488672313e-22)
(-0.1332716672 -0.3838385237 9.119877068e-23)
(-0.1265351749 -0.450435734 2.937963013e-23)
(-0.08899156705 -0.4198535022 5.660498719e-22)
(-0.01526918079 -0.2111718981 6.020911157e-22)
(-0.005180902905 0.08598043723 0)
(-0.02525554701 0.1766290342 1.465580631e-22)
(-0.03483417187 0.2205960157 -4.917106759e-23)
(-0.03640028622 0.2354857642 7.642867045e-22)
(-0.03018502923 0.234340502 -7.005318596e-22)
(-0.01916603593 0.2241602373 4.74644346e-23)
(-0.005615420517 0.2083524736 -1.018603162e-22)
(0.008569318729 0.188124048 -3.389863565e-22)
(0.02179856314 0.1633911176 2.062809517e-22)
(0.0326275193 0.1333243104 0)
(0.03958430096 0.09664093528 0)
(0.04116986496 0.05174066086 -2.90265233e-22)
(0.0357845898 -0.00325529277 0)
(0.02198162072 -0.07058350485 -5.512159341e-22)
(-0.001265045934 -0.1525734566 -1.492361012e-23)
(-0.03310486714 -0.2505949007 2.559706691e-23)
(-0.0690924927 -0.3599340701 2.203085854e-22)
(-0.0922783581 -0.4575423729 4.788437959e-24)
(-0.08718093498 -0.4698128521 -5.789470851e-22)
(-0.0210312752 -0.2698971713 0)
(-0.01111631727 0.1085974954 0)
(-0.04248905119 0.1947151274 -8.848421163e-22)
(-0.04795536982 0.2258194676 -5.411006918e-22)
(-0.03919549377 0.2282134425 4.543784687e-22)
(-0.01877848884 0.218232692 -1.709985323e-24)
(0.007664084302 0.2028219252 -4.561013949e-23)
(0.03667967364 0.1847618938 5.696638061e-22)
(0.06582970749 0.1647117725 -2.76687182e-23)
(0.09327102493 0.1423128079 -2.069768328e-22)
(0.1173888834 0.11662752 3.142194946e-23)
(0.1365459068 0.08641149389 -3.425898766e-23)
(0.148966686 0.05017676416 -3.690576229e-23)
(0.1525273632 0.006159248733 3.205617824e-22)
(0.1449365156 -0.04796119148 6.119575146e-22)
(0.1235158171 -0.1153052232 -5.10114128e-22)
(0.08633520066 -0.2004195114 -1.616032769e-22)
(0.03199077597 -0.3067806174 1.531333042e-22)
(-0.02362131516 -0.4239836723 7.29368646e-23)
(-0.06492416449 -0.4871612309 1.91329647e-21)
(-0.02509972168 -0.3291544369 2.954996958e-21)
(-0.02004680351 0.1460727511 -4.390189241e-23)
(-0.0641640773 0.2112955786 4.417361878e-23)
(-0.0507023535 0.2177300115 1.000182892e-21)
(-0.01934106319 0.2014679371 -8.270435598e-24)
(0.02414451495 0.1809075448 0)
(0.07154104488 0.1606932639 4.363687202e-23)
(0.1190701333 0.1416494924 -2.273834148e-22)
(0.1644765058 0.1233181462 -9.02788567e-23)
(0.2062248808 0.1048117183 3.680707349e-23)
(0.2429640718 0.08507141391 -1.701645574e-23)
(0.2732205421 0.06296150981 3.429952052e-23)
(0.2952534181 0.03726298469 -6.592645713e-23)
(0.3066969379 0.006535120462 -9.303869019e-23)
(0.3049736893 -0.03087764991 1.517034311e-22)
(0.2863935091 -0.07786286758 0)
(0.247056716 -0.1399300077 1.505582676e-22)
(0.1810921486 -0.2266299618 2.560016808e-22)
(0.09604444641 -0.344389478 0)
(-0.006697644515 -0.4552210039 -3.675642802e-21)
(-0.01922408667 -0.3777537423 -2.892626251e-21)
(-0.02591950994 0.2276828912 -9.514191985e-22)
(-0.03998324073 0.2238216604 -1.388971175e-22)
(0.03656136341 0.1810585289 -2.335567709e-22)
(0.109050275 0.1451058874 -1.193734865e-22)
(0.1817190581 0.1172445182 -4.295793519e-23)
(0.2490089782 0.09627904311 9.783081613e-23)
(0.3100335456 0.08002507577 -1.408578574e-22)
(0.3646207871 0.06656813431 1.29716475e-22)
(0.4126250919 0.05449178179 -8.620057367e-23)
(0.4536248722 0.04270895419 1.132191845e-25)
(0.486787724 0.03032299926 1.527732844e-23)
(0.5107450052 0.01652904049 7.997160959e-23)
(0.523659637 0.000536537698 -1.811113691e-22)
(0.5231797183 -0.01863370974 -1.617136449e-22)
(0.5052322806 -0.04286477113 -4.262890294e-23)
(0.4658714647 -0.0763323002 0)
(0.3952696182 -0.1286089347 -1.846493028e-22)
(0.2916070809 -0.2208468086 8.148779165e-22)
(0.1197454961 -0.3525016891 1.631604154e-21)
(0.02670546897 -0.3775497957 2.172657186e-21)
(0.2142894504 0.134744724 9.864975519e-22)
(0.2776311295 0.09870503984 0)
(0.4316592412 0.05810415028 -2.594307787e-22)
(0.5304749398 0.03846264883 -1.741653858e-22)
(0.6016965661 0.02623418842 0)
(0.6571198694 0.01831923131 -6.009027457e-23)
(0.7015213172 0.01313600555 6.377934984e-23)
(0.7376041944 0.00954212478 -1.80013918e-23)
(0.7669367794 0.006804463871 2.88594811e-23)
(0.7902106062 0.004464745972 2.315015484e-23)
(0.8074554447 0.002221323351 0)
(0.8182620896 -0.0001500706058 -2.873015613e-23)
(0.8216499386 -0.002723843703 0)
(0.8162394003 -0.005712665191 2.738119062e-23)
(0.7991333063 -0.009611380783 1.42166132e-23)
(0.7679986333 -0.0150025505 -5.799434068e-23)
(0.7106555771 -0.02502520044 -2.535670085e-22)
(0.623518399 -0.04204285515 -6.918114067e-22)
(0.4230091017 -0.09182968193 0)
(0.2705674686 -0.1524021846 -2.119485019e-21)
)


// ************************************************************************* //
