/*--------------------------------*- C++ -*----------------------------------*\
  =========                 |
  \\      /  F ield         | OpenFOAM: The Open Source CFD Toolbox
   \\    /   O peration     | Website:  https://openfoam.org
    \\  /    A nd           | Version:  13
     \\/     M anipulation  |
\*---------------------------------------------------------------------------*/
FoamFile
{
    format      ascii;
    class       vectorField;
    location    "13.89";
    object      U_all;
}
// * * * * * * * * * * * * * * * * * * * * * * * * * * * * * * * * * * * * * //


400
(
(1.034110158e-05 -3.661814943e-05 0)
(-0.0006644253454 0.0004118706778 -1.537884874e-23)
(-0.002175755012 0.0009161033872 0)
(-0.004027989257 0.001306022069 0)
(-0.005941382243 0.001526905013 6.707378335e-25)
(-0.007722742845 0.00156146886 4.137741838e-24)
(-0.009237069895 0.001416091778 -6.875627414e-24)
(-0.01038386705 0.001114083344 8.068167632e-24)
(-0.01108344423 0.0006928817435 -2.142830332e-25)
(-0.01127591373 0.0002024998248 -4.070076378e-24)
(-0.01092613497 -0.0002983969535 5.891609654e-24)
(-0.01003519109 -0.0007439335906 -6.005912177e-23)
(-0.008653282366 -0.001071196795 -6.641265116e-23)
(-0.006887630099 -0.001229009603 -7.883783493e-23)
(-0.004906275314 -0.001189968956 4.644006046e-24)
(-0.002931392957 -0.0009613287764 -4.219884342e-24)
(-0.001214789652 -0.0005928460506 -2.059914473e-22)
(-2.934808302e-05 -0.0001731415709 0)
(0.0005108010184 0.0001681261139 1.811767571e-25)
(0.0002208702202 0.0003033729463 -6.535260095e-24)
(-0.0002619565685 0.0008265071875 1.372319263e-25)
(-0.002688206953 0.003366392645 1.547570375e-23)
(-0.006866785382 0.005572751578 1.53620534e-25)
(-0.01188123693 0.006967512809 -8.32761157e-25)
(-0.01703312425 0.007510145191 1.134594918e-24)
(-0.02184602142 0.007253274075 1.263111687e-23)
(-0.02596014787 0.006288463219 1.839809205e-24)
(-0.02910175171 0.004731877226 -7.807321034e-24)
(-0.0310586776 0.002728100592 1.044832005e-23)
(-0.03167917383 0.0004569987911 4.596859768e-24)
(-0.03087895668 -0.001866699938 -6.414987658e-24)
(-0.02866639786 -0.003995833866 2.910967055e-24)
(-0.02517191804 -0.005675781626 3.937226553e-23)
(-0.02066230888 -0.006674633638 -1.991368083e-24)
(-0.01554892866 -0.006826360206 3.833624843e-24)
(-0.01036900271 -0.006078944276 -1.005144014e-22)
(-0.005731371502 -0.004539248478 9.963195706e-23)
(-0.002242334432 -0.00251134954 -4.559987104e-25)
(-0.0001900070223 -0.0005131557966 4.674993649e-25)
(8.221794453e-05 0.0006013625327 0)
(-0.0004158425176 0.002919485867 -2.882693628e-25)
(-0.004617544963 0.008751620374 1.67658471e-23)
(-0.01129792486 0.01315913731 -8.265171841e-24)
(-0.01920253829 0.01569506507 -2.016624068e-25)
(-0.02729922061 0.01643062833 1.981130144e-25)
(-0.03489858441 0.01555444664 1.911377089e-26)
(-0.04145971774 0.013289017 -1.656362201e-24)
(-0.04655994696 0.009874831725 -4.85708611e-25)
(-0.04986617971 0.005587578038 -1.094069953e-23)
(-0.05113442455 0.0007605308346 0)
(-0.05021942232 -0.004197838081 0)
(-0.04711018963 -0.008821206873 2.716921639e-23)
(-0.04197253388 -0.01260239327 2.861733841e-23)
(-0.0351724538 -0.01505374841 -1.686100739e-24)
(-0.02729301466 -0.01578757635 4.993692101e-23)
(-0.0191134616 -0.01461659998 9.720696058e-23)
(-0.01153576629 -0.0116606978 4.336163348e-23)
(-0.005459760464 -0.007442476687 5.359790601e-25)
(-0.001453512482 -0.002945978776 4.276975652e-26)
(-9.075503717e-05 0.0002133554466 0)
(-0.0004985010395 0.006008627261 -4.188282351e-23)
(-0.006358585745 0.01626718968 -1.666597906e-23)
(-0.01542992566 0.02340948696 8.190573577e-24)
(-0.02610464327 0.02726951311 0)
(-0.03704514796 0.0281490089 0)
(-0.04738818408 0.02643486814 0)
(-0.05644727676 0.02251257342 -6.180301083e-26)
(-0.06367315908 0.01676239583 -1.767953335e-24)
(-0.06861631495 0.00959942804 0)
(-0.07091848384 0.001520328843 1.755711599e-24)
(-0.07034065317 -0.006860047245 2.881937714e-25)
(-0.06679919537 -0.01481548352 -2.89000727e-25)
(-0.06041668224 -0.02152765661 0)
(-0.05158177964 -0.02616791081 4.278071021e-23)
(-0.04098353553 -0.02802165567 -4.825433836e-23)
(-0.02960973106 -0.02666008273 -2.946137624e-23)
(-0.01867516714 -0.02213897991 -4.32749398e-23)
(-0.009461048416 -0.01518422617 7.746507924e-25)
(-0.002970912921 -0.007297469705 9.312389161e-23)
(-0.0002311271105 -0.0008783250053 0)
(-0.0005274367796 0.01003015602 4.208681012e-23)
(-0.007928969696 0.02578379632 4.797853202e-25)
(-0.0192673801 0.03619478528 -4.688282348e-25)
(-0.03260976046 0.04159279912 0)
(-0.04635040676 0.04263672859 7.663378868e-25)
(-0.05948281065 0.03997374339 -7.557128059e-25)
(-0.07120504656 0.0341722464 3.596389285e-23)
(-0.08085925567 0.02574769335 1.763422917e-23)
(-0.0878771937 0.01523812081 5.937361346e-24)
(-0.09176590734 0.003286474743 -1.757757094e-24)
(-0.09213486567 -0.009297495685 0)
(-0.08874448759 -0.02150651033 4.585410281e-25)
(-0.08158198591 -0.03215896019 1.093061957e-23)
(-0.0709558166 -0.03998599057 -4.503973551e-23)
(-0.05757842171 -0.04380061424 2.039700464e-24)
(-0.04261577642 -0.04275923466 4.597156369e-23)
(-0.0276498837 -0.03669459505 -4.465123387e-25)
(-0.01449863377 -0.02644813346 0)
(-0.004843285709 -0.01406018501 5.390912285e-23)
(-0.000362379744 -0.002853127346 -2.507280646e-22)
(-0.0005235136401 0.01490154257 9.827935364e-23)
(-0.009317660591 0.03714799451 -4.911757612e-25)
(-0.02273817005 0.0513737872 0)
(-0.03859254631 0.05857932676 0)
(-0.05505657071 0.05990274248 -8.662816272e-23)
(-0.07101652945 0.05631020939 -8.408921681e-23)
(-0.08558731664 0.04856325475 -3.983512814e-23)
(-0.0980232978 0.03728967118 -1.456892022e-23)
(-0.1076391657 0.02310781458 -5.100229761e-24)
(-0.1137826356 0.00675748965 -7.943700883e-24)
(-0.1158573643 -0.01079133914 6.339304954e-24)
(-0.1133809757 -0.02826802041 8.31964376e-24)
(-0.1060884791 -0.0440901071 -1.86698804e-23)
(-0.09407554529 -0.05644109858 2.424472455e-24)
(-0.0779547677 -0.06347021 0)
(-0.05899898323 -0.06365416855 -1.780541777e-23)
(-0.03919125527 -0.05631814218 4.580742451e-26)
(-0.02106359811 -0.04221712458 0)
(-0.007291815644 -0.02392097575 -1.467773805e-22)
(-0.0005188668483 -0.005920711108 5.934033247e-22)
(-0.0004964207069 0.02051344722 -9.760872475e-23)
(-0.01046958251 0.05013548527 2.819714996e-22)
(-0.0256848981 0.06869922264 1.519455988e-22)
(-0.0437801483 0.07802717406 3.594987481e-24)
(-0.06277103664 0.07984430014 -7.271370707e-23)
(-0.08148188442 0.07548712524 8.946696813e-23)
(-0.09898430639 0.06591192032 -3.550157699e-24)
(-0.1144761408 0.05182131959 -1.700183045e-24)
(-0.1271717113 0.03384884772 2.479030981e-24)
(-0.1362538521 0.01275096569 7.167317265e-24)
(-0.1408849518 -0.01042196684 -6.252011664e-24)
(-0.1402659887 -0.03419197977 -9.229279946e-24)
(-0.1337620453 -0.05657966356 -3.235458648e-23)
(-0.1210963272 -0.07513549068 -3.284956537e-23)
(-0.1025973371 -0.08713188512 4.872282479e-25)
(-0.079482904 -0.09000878494 0)
(-0.05407823066 -0.08212863349 0)
(-0.02976800079 -0.06375788225 -2.814776257e-24)
(-0.01062522913 -0.03787626967 2.877201189e-24)
(-0.0007314948539 -0.01047927293 1.021241049e-22)
(-0.0004467923556 0.02670764558 0)
(-0.01129634408 0.06441640235 1.990853026e-22)
(-0.02788528659 0.08777819093 8.91207933e-23)
(-0.04777763608 0.09956069859 0)
(-0.06889511786 0.1021647519 1.558392932e-22)
(-0.09005081774 0.09734187157 0)
(-0.1103213298 0.08624157327 -1.414727693e-22)
(-0.1288946588 0.06959799492 6.442941219e-24)
(-0.1449270136 0.04798149884 0)
(-0.1574674412 0.02206033415 0)
(-0.165446007 -0.007154229306 -1.34843724e-24)
(-0.1677176694 -0.03808506508 -9.054231237e-25)
(-0.1631918343 -0.06843627021 1.457379681e-22)
(-0.1510582815 -0.0951101477 -4.668899372e-23)
(-0.1311195809 -0.114327237 -2.460698547e-24)
(-0.1042491946 -0.1220838474 1.440646945e-24)
(-0.07287615416 -0.1151310187 -1.46337238e-24)
(-0.0412255097 -0.09252072629 0)
(-0.01520464109 -0.05723372967 3.148153646e-24)
(-0.001039877058 -0.01710307852 -9.980407331e-22)
(-0.0003752488804 0.03327151807 0)
(-0.0117109177 0.07953781402 -1.12327128e-22)
(-0.02910562619 0.1080433661 -6.159483106e-22)
(-0.05014130914 0.1225777388 -3.734066933e-22)
(-0.07271121114 0.1262879304 0)
(-0.09566794606 0.1213828434 4.08884156e-22)
(-0.1181469842 0.109210199 1.248852924e-22)
(-0.1393891338 0.09050094368 -5.523287746e-24)
(-0.1585659141 0.06568859533 5.495950578e-24)
(-0.1746732128 0.03524220714 0)
(-0.1864792449 -1.119741713e-05 2.879845407e-23)
(-0.1925488234 -0.03857412389 4.625173226e-24)
(-0.1913329355 -0.07799967212 -1.056498824e-22)
(-0.1813722999 -0.1146609243 7.815617945e-23)
(-0.1616892971 -0.1436857587 -2.374546785e-22)
(-0.1324021356 -0.1592795405 0)
(-0.0955541051 -0.155791292 0)
(-0.05587973652 -0.1298927012 0)
(-0.02142295441 -0.08356686744 0)
(-0.001495144049 -0.02658352822 5.495051961e-22)
(-0.0002902559026 0.03995214622 0)
(-0.01167399978 0.09494386557 -3.475695447e-22)
(-0.02918585268 0.1287568082 8.888002152e-22)
(-0.05050047637 0.1462246962 3.596675095e-22)
(-0.07353883697 0.1512963449 0)
(-0.09724059273 0.1466843239 -3.833964235e-22)
(-0.1208557194 0.1339565342 -3.149400341e-23)
(-0.1437516275 0.1138312237 3.306995403e-22)
(-0.1652147343 0.08655855256 1.754923189e-22)
(-0.1843158817 0.05231704215 -4.026015107e-23)
(-0.1998211292 0.01160191639 1.649147578e-23)
(-0.2101529221 -0.03438617148 -8.174471729e-24)
(-0.2134168914 -0.08331525306 3.339381171e-22)
(-0.2075268583 -0.1313288573 0)
(-0.19054595 -0.1726649603 2.375693885e-22)
(-0.1613855985 -0.1996274648 5.639667404e-24)
(-0.1209667421 -0.2034157501 -5.723771933e-24)
(-0.07371743464 -0.1767210159 1.506020418e-22)
(-0.02965861056 -0.1185477609 -5.31041083e-24)
(-0.002173610898 -0.03995108694 0)
(-0.000216603505 0.04650306057 0)
(-0.01125395195 0.1100418389 0)
(-0.02815067428 0.1490601194 -4.997988159e-22)
(-0.04871990753 0.1694176209 -1.871574289e-23)
(-0.07095281276 0.1759197325 2.026030156e-23)
(-0.09392500055 0.1718394053 -2.002108422e-23)
(-0.1170582281 0.1590104049 -2.300365685e-23)
(-0.1399246752 0.1381658799 -3.005906543e-22)
(-0.1620385589 0.1093731879 6.675738543e-23)
(-0.182704875 0.07247782246 4.474817928e-23)
(-0.2008962538 0.0275317752 -4.537676796e-23)
(-0.2151399863 -0.02476612831 0)
(-0.223462734 -0.08254626182 -7.703018806e-23)
(-0.223355998 -0.1421939702 0)
(-0.2119436065 -0.1975801302 -3.706723989e-22)
(-0.1866066865 -0.2394370406 5.18751602e-22)
(-0.1463104571 -0.2554465657 0)
(-0.09384049187 -0.2325714799 -1.452824642e-22)
(-0.04016465921 -0.1635821302 1.895037308e-22)
(-0.003194789715 -0.05847561222 -3.369210564e-22)
(-0.0002081420765 0.05277175507 0)
(-0.01070162799 0.1243222222 9.144394994e-22)
(-0.02633665389 0.168076781 -2.429860994e-23)
(-0.04507914855 0.1909177899 9.152687402e-22)
(-0.06502467964 0.198592261 -2.499706836e-23)
(-0.08545430953 0.1950060778 2.822389742e-23)
(-0.1060298681 0.1823250294 -2.796625964e-23)
(-0.126606589 0.1613601551 -1.650476838e-23)
(-0.1470313304 0.1320498077 -5.227494214e-22)
(-0.1669941853 0.09393399802 -8.850260918e-24)
(-0.1858899755 0.04658908969 9.600169453e-24)
(-0.2026398786 -0.009932334996 3.295628607e-22)
(-0.2155640457 -0.07459286851 -5.785450429e-22)
(-0.2221382656 -0.1445463637 0)
(-0.2188744454 -0.2141278142 8.824389347e-22)
(-0.2016437646 -0.2734075136 -4.886906926e-22)
(-0.1668356227 -0.3069720588 -1.555082379e-23)
(-0.1139708572 -0.294818188 0)
(-0.05284418712 -0.2191613413 -1.84838781e-22)
(-0.004743173488 -0.08360943014 3.319003825e-22)
(-0.0003720615869 0.05884229298 1.544648031e-23)
(-0.01054866541 0.1375354216 -8.727486011e-22)
(-0.02452259 0.1850601757 -1.152783121e-21)
(-0.04042750584 0.2094536554 -8.590851922e-22)
(-0.05651225029 0.2175751712 0)
(-0.072392805 0.2140533479 3.496319395e-23)
(-0.08807213646 0.2014533904 -7.257782993e-23)
(-0.1037699142 0.1807388147 5.837359492e-23)
(-0.1197429138 0.1518046763 3.004041479e-22)
(-0.1361627086 0.1139742502 -1.122370932e-23)
(-0.1529935835 0.06640378527 0)
(-0.1698381423 0.008467840598 -3.584676065e-22)
(-0.1856439369 -0.05979436365 7.482039044e-22)
(-0.1983732519 -0.1368553966 8.797671633e-22)
(-0.2046202474 -0.2184635238 -5.264775298e-22)
(-0.199282273 -0.2954694676 5.136955183e-22)
(-0.1761583554 -0.3508761192 1.063769337e-23)
(-0.1301135915 -0.3578940009 -1.080852172e-23)
(-0.06687437445 -0.2839058745 -8.574827168e-23)
(-0.007078797884 -0.1168147241 0)
(-0.0009181732258 0.0652551907 -1.904636273e-23)
(-0.01174899677 0.1498981942 -1.322752021e-21)
(-0.02404662743 0.1995246225 1.090214024e-21)
(-0.03625522929 0.2238138404 6.713042698e-22)
(-0.04689027852 0.2310698784 5.994016791e-22)
(-0.05615235864 0.2267370913 6.619301123e-22)
(-0.06454773029 0.2138069474 -4.439302134e-23)
(-0.07275507009 0.1934354223 -3.447678122e-22)
(-0.08148383849 0.1655444276 2.143734338e-22)
(-0.09140843309 0.1293531957 0)
(-0.103101231 0.08372689051 0)
(-0.1169035241 0.02747694585 2.647308674e-22)
(-0.1326778126 -0.04029438638 8.221158702e-23)
(-0.1494011107 -0.1196620147 -2.804386915e-22)
(-0.1645377524 -0.2085633406 -5.393833033e-23)
(-0.173107007 -0.300313112 1.306814611e-22)
(-0.1672444292 -0.3789189628 -3.381884824e-22)
(-0.1366346377 -0.4132171295 -1.747905461e-23)
(-0.08020492287 -0.3534524025 8.56310837e-23)
(-0.01050628535 -0.1592291218 -6.055071366e-22)
(-0.002269109529 0.07338869824 0)
(-0.01589005796 0.1623594821 2.139516036e-21)
(-0.0268433246 0.2113554674 0)
(-0.03452580995 0.2328917459 -1.347904517e-21)
(-0.0379959793 0.2372822836 6.209920553e-23)
(-0.0384827871 0.2308325156 -6.170012939e-22)
(-0.03723093126 0.2168802986 -4.740183043e-22)
(-0.03548428719 0.1967292099 8.271119035e-22)
(-0.03441185445 0.1703058691 -1.87822869e-22)
(-0.03513148886 0.1368171495 0)
(-0.03874297602 0.09498865323 0)
(-0.04625750869 0.04329857495 2.424186747e-23)
(-0.05848425359 -0.01985057468 -5.991053399e-22)
(-0.07567693997 -0.09591695492 -4.298203786e-22)
(-0.09692043624 -0.1852752537 4.630706899e-22)
(-0.11873211 -0.2850819073 -6.468315005e-22)
(-0.1335568339 -0.383551251 9.0316463e-23)
(-0.1267033071 -0.4501324765 3.098483897e-23)
(-0.08904955542 -0.4195547817 5.66726772e-22)
(-0.0152724622 -0.2110062999 6.043660896e-22)
(-0.005188310637 0.08593001894 0)
(-0.02534424457 0.1764395502 1.467683608e-22)
(-0.03503900352 0.2202852551 -4.906029768e-23)
(-0.03672875019 0.2351069181 7.623304758e-22)
(-0.03062797668 0.2339569648 -6.985978697e-22)
(-0.01970576536 0.2238273283 4.732687387e-23)
(-0.006213566323 0.2081095831 -1.017790621e-22)
(0.007929208378 0.187993288 -3.37850664e-22)
(0.02113180773 0.1633745777 2.057046765e-22)
(0.03196982966 0.1334110529 0)
(0.03895161069 0.09680807687 0)
(0.04057619984 0.05195820646 -2.895919816e-22)
(0.03523321386 -0.003019927297 0)
(0.02147965285 -0.07035169701 -5.506174229e-22)
(-0.001708133301 -0.1523633791 -1.456269043e-23)
(-0.03347764492 -0.2504081965 2.555970679e-23)
(-0.06939056205 -0.3597539123 2.193907852e-22)
(-0.09247350782 -0.457367432 4.818361494e-24)
(-0.08726011214 -0.4696166509 -5.796959684e-22)
(-0.02103957661 -0.2697691537 0)
(-0.0111202447 0.1085928827 0)
(-0.04256160532 0.1946256313 -8.830816328e-22)
(-0.04813489804 0.2256340672 -5.403961995e-22)
(-0.03949479046 0.2279625826 4.537851794e-22)
(-0.01919256356 0.2179641124 -1.71808347e-24)
(0.007152413087 0.2025795359 -4.552303639e-23)
(0.0361016529 0.1845822191 5.681890276e-22)
(0.06521183676 0.1646040642 -2.759605477e-23)
(0.09263898021 0.142293071 -2.063889571e-22)
(0.1167725315 0.1166881326 3.134864117e-23)
(0.1359642301 0.08653618032 -3.419018426e-23)
(0.14843233 0.05034300938 -3.684990415e-23)
(0.1520515558 0.006342185714 3.201696545e-22)
(0.1445229644 -0.04778504876 6.113173716e-22)
(0.1231588092 -0.1151542683 -5.097202864e-22)
(0.08604109737 -0.2003008503 -1.61704659e-22)
(0.03173283242 -0.3066889253 1.528434011e-22)
(-0.0238058155 -0.4238914318 7.293258999e-23)
(-0.06499867637 -0.4870564913 1.912878383e-21)
(-0.02511000343 -0.3290725476 2.954525329e-21)
(-0.02004415288 0.1460970396 -4.385833988e-23)
(-0.06419749612 0.2112802715 4.412979466e-23)
(-0.0508095366 0.21764881 9.991907839e-22)
(-0.01954162112 0.2013314904 -8.040144836e-24)
(0.02384429531 0.1807451339 0)
(0.0711486867 0.1605361137 4.355957281e-23)
(0.1186085591 0.1415246569 -2.268961193e-22)
(0.1639711332 0.1232389396 -9.00711773e-23)
(0.2057023277 0.1047884194 3.67178865e-23)
(0.2424523896 0.08510183143 -1.697654303e-23)
(0.2727420906 0.06303640367 3.423063582e-23)
(0.2948266877 0.03736773077 -6.582376982e-23)
(0.3063252578 0.006652964732 -9.289843214e-23)
(0.304660279 -0.03076420464 1.516147917e-22)
(0.2861384813 -0.07776869422 0)
(0.2468536152 -0.1398649376 1.506925348e-22)
(0.1809276037 -0.2266006892 2.559021751e-22)
(0.09592146579 -0.3443528915 0)
(-0.006760397113 -0.4551822291 -3.67482952e-21)
(-0.01923437033 -0.3777178912 -2.892162396e-21)
(-0.0259120028 0.2277084443 -9.511754007e-22)
(-0.03997133359 0.2238392728 -1.388171644e-22)
(0.03654802441 0.1810429656 -2.333176771e-22)
(0.1089831115 0.145057255 -1.192144204e-22)
(0.181581004 0.1171743074 -4.293463729e-23)
(0.2487954797 0.09620464584 9.770226756e-23)
(0.3097545556 0.07996179417 -1.40596671e-22)
(0.3642945447 0.0665254955 1.294274477e-22)
(0.4122739074 0.05447600533 -8.599366212e-23)
(0.4532734062 0.0427202216 1.131446487e-25)
(0.4864577538 0.03035704766 1.525026627e-23)
(0.5104533398 0.01657848096 7.984717873e-23)
(0.5234189299 0.0005891100072 -1.809157359e-22)
(0.5229964723 -0.01858250146 -1.616242517e-22)
(0.5050975571 -0.04282336615 -4.262345813e-23)
(0.4657766482 -0.07630626379 0)
(0.3952009043 -0.1286008202 -1.844171391e-22)
(0.2915552861 -0.2208443975 8.14625923e-22)
(0.1197141733 -0.3524995279 1.631220158e-21)
(0.02669754819 -0.3775451149 2.17245725e-21)
(0.2142972673 0.1347524078 9.862284582e-22)
(0.2776554877 0.0987148957 0)
(0.4316864023 0.05810876814 -2.593047323e-22)
(0.5304862005 0.03846108474 -1.74096336e-22)
(0.6016759358 0.02622796205 0)
(0.6570597788 0.01831132561 -6.001871797e-23)
(0.7014240243 0.0131292886 6.365729199e-23)
(0.7374790701 0.009538402104 -1.795573909e-23)
(0.7667970174 0.006804948524 2.878720979e-23)
(0.7900710999 0.004469406191 2.309461167e-23)
(0.807329701 0.002229307664 0)
(0.818159963 -0.0001400223173 -2.868232568e-23)
(0.8215771893 -0.002713186117 0)
(0.8161971946 -0.005704654546 2.735971996e-23)
(0.7991153004 -0.009606661574 1.423291352e-23)
(0.767996771 -0.01500126134 -5.796488838e-23)
(0.7106599325 -0.02502726861 -2.534270069e-22)
(0.6235211799 -0.04204527321 -6.91614076e-22)
(0.4230087891 -0.09183220678 0)
(0.270566711 -0.1524033287 -2.119289913e-21)
)


// ************************************************************************* //
