/*--------------------------------*- C++ -*----------------------------------*\
  =========                 |
  \\      /  F ield         | OpenFOAM: The Open Source CFD Toolbox
   \\    /   O peration     | Website:  https://openfoam.org
    \\  /    A nd           | Version:  13
     \\/     M anipulation  |
\*---------------------------------------------------------------------------*/
FoamFile
{
    format      ascii;
    class       vectorField;
    location    "18.84";
    object      U_all;
}
// * * * * * * * * * * * * * * * * * * * * * * * * * * * * * * * * * * * * * //


400
(
(1.080547255e-05 -3.77668713e-05 0)
(-0.0006660140136 0.000412881677 -1.542234238e-23)
(-0.00218422559 0.0009198628038 0)
(-0.004045405746 0.001311946714 0)
(-0.005968120335 0.001534060276 6.818187098e-25)
(-0.007757855196 0.001568816375 4.151231731e-24)
(-0.009278701578 0.001422644328 -7.281380913e-24)
(-0.01042953289 0.001119029694 7.628056875e-24)
(-0.01113024805 0.0006956890976 -2.103633189e-25)
(-0.01132081301 0.0002030061118 -4.007538342e-24)
(-0.01096615772 -0.0003000078634 5.818260685e-24)
(-0.01006775754 -0.0007470762589 -5.941992389e-23)
(-0.00867660335 -0.00107502634 -6.566610721e-23)
(-0.006900971793 -0.001232548336 -7.799648677e-23)
(-0.004910176764 -0.001192309448 4.584133317e-24)
(-0.002927728787 -0.0009618456597 -4.149906747e-24)
(-0.001206451285 -0.000591409505 -2.007493157e-22)
(-2.032058135e-05 -0.0001702798657 0)
(0.0005172568033 0.0001716022409 1.551659251e-25)
(0.0002225214036 0.0003056605971 -3.105855521e-24)
(-0.0002632468143 0.0008285456693 1.38760798e-25)
(-0.002701505338 0.003381634848 1.551892757e-23)
(-0.006902326105 0.00560055591 1.541483954e-25)
(-0.01194358979 0.007003177248 -8.453027688e-25)
(-0.0171225097 0.007548395744 1.155564268e-24)
(-0.0219594443 0.007289160944 1.298200312e-23)
(-0.02609223613 0.006317783674 1.476101248e-24)
(-0.02924549537 0.004751453029 -7.377374759e-24)
(-0.03120607475 0.002736042575 1.020414762e-23)
(-0.03182199983 0.0004529689745 4.524855625e-24)
(-0.03100934838 -0.001882000893 -6.334850381e-24)
(-0.02877759088 -0.004019689234 2.95515561e-24)
(-0.02525915977 -0.005704355184 3.902246186e-23)
(-0.0207233839 -0.006703385401 -1.960229722e-24)
(-0.01558461098 -0.006850727887 3.766148939e-24)
(-0.01038313184 -0.006095185888 -9.785625491e-23)
(-0.005730385539 -0.004545326298 9.68407527e-23)
(-0.00223445072 -0.002507890055 -4.044749178e-25)
(-0.0001827759823 -0.000503684234 4.146756582e-25)
(8.328717718e-05 0.0006088817395 0)
(-0.0004184707704 0.002933109942 -2.912850571e-25)
(-0.004644174616 0.00879750851 1.706541318e-23)
(-0.01136287615 0.0132303729 -8.210627222e-24)
(-0.01931196285 0.01578007834 -2.057344504e-25)
(-0.02745261916 0.01651776188 2.021126214e-25)
(-0.03509084649 0.01563335184 9.354222664e-27)
(-0.04168227274 0.01335126242 -1.30564583e-24)
(-0.0468018487 0.009914264876 -4.609028384e-25)
(-0.05011506431 0.005600628257 -1.068485099e-23)
(-0.05137821516 0.0007464218824 0)
(-0.05044621134 -0.004236373145 0)
(-0.04730923288 -0.008879083519 2.678265014e-23)
(-0.04213637377 -0.01267202875 2.82051565e-23)
(-0.0352969644 -0.01512595525 -1.652048695e-24)
(-0.02737806365 -0.01585277777 4.867305394e-23)
(-0.01916310396 -0.01466637555 9.462621831e-23)
(-0.01155780814 -0.01168955477 4.026320857e-23)
(-0.005464704972 -0.0074497104 4.311756542e-25)
(-0.001451386592 -0.002937242122 9.840614008e-26)
(-9.072943151e-05 0.0002243525003 0)
(-0.000501984247 0.006040793786 -4.248758412e-23)
(-0.006397329001 0.01635795638 -1.696726454e-23)
(-0.01552212266 0.02354085253 8.137333397e-24)
(-0.02625769542 0.02742042882 0)
(-0.03725771325 0.02829986556 0)
(-0.04765327948 0.02656895178 0)
(-0.05675376309 0.02261665816 -4.779266369e-26)
(-0.0640071501 0.016827081 -2.074201573e-24)
(-0.06896244961 0.009619431923 0)
(-0.07126051825 0.00149468422 1.654199071e-24)
(-0.07066348296 -0.006927098902 2.814966919e-25)
(-0.06708984316 -0.01491610844 -2.822848767e-25)
(-0.06066448892 -0.02165015992 0)
(-0.05177987426 -0.02629790011 4.15426737e-23)
(-0.04112954783 -0.02814366809 -4.702432773e-23)
(-0.02970623469 -0.02675979198 -2.787902884e-23)
(-0.01872956878 -0.02220593907 -4.012323272e-23)
(-0.009484717536 -0.01521491177 7.789910304e-25)
(-0.002976144688 -0.007298081122 9.725013808e-23)
(-0.000231787838 -0.000867643095 0)
(-0.0005311049733 0.01008700935 4.269431658e-23)
(-0.007976896181 0.0259314374 4.775538733e-25)
(-0.01938099076 0.03640001137 -4.666466613e-25)
(-0.03279756952 0.04182293534 0)
(-0.0466105361 0.04286314738 7.757748131e-25)
(-0.05980700997 0.04017289947 -7.650183682e-25)
(-0.07158049765 0.03432597209 3.659761294e-23)
(-0.08127017862 0.02584334302 1.834466611e-23)
(-0.08830618957 0.01526877702 6.19313302e-24)
(-0.09219490773 0.00325114733 -1.65612623e-24)
(-0.09254646359 -0.009394266278 0)
(-0.08912286678 -0.0216541378 4.402007687e-25)
(-0.08191362458 -0.03234190333 1.020997114e-23)
(-0.07123060569 -0.04018476363 -4.371715878e-23)
(-0.05779064793 -0.04399354906 1.948042939e-24)
(-0.04276504918 -0.0429251476 4.270432223e-23)
(-0.02774171528 -0.03681645873 -3.928623382e-25)
(-0.01454426516 -0.02651750915 0)
(-0.004857482036 -0.01408153709 5.430920897e-23)
(-0.0003639324979 -0.002847692176 -2.557305287e-22)
(-0.0005267699175 0.0149872412 9.832522963e-23)
(-0.009370545093 0.03736041593 -4.902590605e-25)
(-0.02286423195 0.05166184828 0)
(-0.03880130394 0.05889730747 0)
(-0.05534617164 0.06021244298 -8.7202135e-23)
(-0.0713783271 0.05658118748 -8.484755109e-23)
(-0.08600793743 0.04877254206 -4.053704276e-23)
(-0.09848638083 0.0374215133 -1.496941264e-23)
(-0.1081266897 0.02315357725 -5.328219414e-24)
(-0.1142758741 0.006715632129 -8.14250344e-24)
(-0.1163378287 -0.01091551319 6.564654461e-24)
(-0.1138311758 -0.0284623017 8.75657484e-24)
(-0.1064925558 -0.04433613583 -1.889207796e-23)
(-0.09442016425 -0.05671513601 4.306933729e-24)
(-0.07823029153 -0.06374473424 0)
(-0.0592008997 -0.06390061758 -1.60175421e-23)
(-0.03932169185 -0.05651125087 -1.464315037e-26)
(-0.02113233232 -0.04234083586 0)
(-0.007315419008 -0.02397477162 -1.513478275e-22)
(-0.000521280983 -0.005924937004 6.039909877e-22)
(-0.0004987597786 0.02062947935 -9.765543108e-23)
(-0.0105221846 0.05041519458 2.829754206e-22)
(-0.02581188778 0.06907281951 1.525598356e-22)
(-0.04399189846 0.07843548601 3.615217359e-24)
(-0.06306629677 0.08023957318 -7.313311929e-23)
(-0.08185249672 0.07583231798 9.028178238e-23)
(-0.09941742557 0.06617967766 -3.584247884e-24)
(-0.1149560625 0.05199315122 -1.725092161e-24)
(-0.1276811797 0.0339145938 2.517846902e-24)
(-0.1367749446 0.0127084198 7.352351815e-24)
(-0.1413996513 -0.01056743252 -6.466242537e-24)
(-0.1407567548 -0.03442737384 -9.710869418e-24)
(-0.1342121776 -0.05688513671 -3.258677699e-23)
(-0.1214903819 -0.07548455304 -3.610169724e-23)
(-0.1029222125 -0.08749242457 5.540695223e-25)
(-0.07972949588 -0.0903452725 0)
(-0.05424384726 -0.08240647081 0)
(-0.0298589821 -0.06395054298 -2.893813217e-24)
(-0.01065826392 -0.03797428296 2.957990784e-24)
(-0.000734655026 -0.01049823719 1.027071957e-22)
(-0.000447783152 0.02685226814 0)
(-0.01134278458 0.06475956515 2.000598367e-22)
(-0.0280000569 0.08823264002 8.95598764e-23)
(-0.04797163336 0.1000545319 0)
(-0.06916812297 0.1026412154 1.568129919e-22)
(-0.09039586066 0.09775788471 0)
(-0.1107269299 0.08656598963 -1.426532524e-22)
(-0.129346733 0.06981016217 6.505602502e-24)
(-0.1454102408 0.04807019609 0)
(-0.1579661468 0.02202296326 0)
(-0.1659443769 -0.007312280685 -1.37097483e-24)
(-0.1682003649 -0.03835125371 -9.282077775e-25)
(-0.163643916 -0.06879043792 1.487410594e-22)
(-0.1514646416 -0.09552504198 -4.700381436e-23)
(-0.1314655646 -0.1147685153 -2.547652137e-24)
(-0.1045218538 -0.1225109727 1.522167952e-24)
(-0.07306705545 -0.1155004466 -1.546179108e-24)
(-0.04133503643 -0.09279326178 0)
(-0.01524649867 -0.05738642868 3.196465576e-24)
(-0.001043769478 -0.01714175109 -1.010957726e-21)
(-0.0003745668751 0.03343955691 0)
(-0.01174530914 0.07993385069 -1.127315271e-22)
(-0.02919475271 0.1085661041 -6.186548175e-22)
(-0.05029604413 0.123144366 -3.752345612e-22)
(-0.07293255955 0.1268336935 0)
(-0.09595053407 0.1218593306 4.115345196e-22)
(-0.1184811731 0.1095831545 1.25928512e-22)
(-0.1397630126 0.09074829761 -5.574143276e-24)
(-0.1589668213 0.06579886322 5.546554278e-24)
(-0.1750887665 0.03521310263 0)
(-0.1868982075 -0.0001739307708 2.907983488e-23)
(-0.1929604821 -0.03885796623 4.686689219e-24)
(-0.1917266682 -0.07838524407 -1.074154634e-22)
(-0.1817370925 -0.1151224095 7.979481614e-23)
(-0.1620124197 -0.144189929 -2.413887685e-22)
(-0.1326692834 -0.1597847227 0)
(-0.09575157552 -0.1562478934 0)
(-0.0559997272 -0.1302486728 0)
(-0.02147182434 -0.08378152462 0)
(-0.001499747239 -0.02664641311 5.562017302e-22)
(-0.000287744832 0.04013522081 0)
(-0.01169124509 0.09537583053 -3.490537199e-22)
(-0.02923732943 0.1293277346 8.926583436e-22)
(-0.05059631486 0.146843678 3.61431942e-22)
(-0.07368126161 0.1518920028 0)
(-0.09742603812 0.1472036883 -3.858712654e-22)
(-0.1210766496 0.1343629207 -3.171151392e-23)
(-0.1439985887 0.1141019865 3.329739482e-22)
(-0.1654781889 0.08668306757 1.767612403e-22)
(-0.1845875985 0.05229462175 -4.055808981e-23)
(-0.2000950314 0.01143987649 1.655892026e-23)
(-0.2104249416 -0.03467412234 -8.253656661e-24)
(-0.2136841714 -0.08371067812 3.367726601e-22)
(-0.2077859503 -0.1318089869 0)
(-0.1907902414 -0.173201221 2.41505387e-22)
(-0.1616035443 -0.2001823779 5.757223282e-24)
(-0.1211420788 -0.2039395266 -5.843080584e-24)
(-0.07383382212 -0.1771521822 1.542919909e-22)
(-0.02971067024 -0.1188256641 -5.419124912e-24)
(-0.00217882415 -0.04004143632 0)
(-0.0002123201281 0.04669029498 0)
(-0.01125053999 0.1104876632 0)
(-0.02815567427 0.1496529099 -5.019369314e-22)
(-0.04874193026 0.1700620666 -1.879731244e-23)
(-0.07099524312 0.1765395759 2.036755822e-23)
(-0.09398633654 0.172377961 -2.01270748e-23)
(-0.117133396 0.1594291788 -2.314757932e-23)
(-0.1400069757 0.1384424172 -3.026741984e-22)
(-0.1621218137 0.1094989389 6.695848993e-23)
(-0.1827852454 0.0724552875 4.508293005e-23)
(-0.2009733484 0.02737171978 -4.572633227e-23)
(-0.2152168329 -0.02504776484 0)
(-0.2235452077 -0.08293020215 -7.8221623e-23)
(-0.2234504838 -0.142660975 0)
(-0.2120530648 -0.1981088245 -3.73537683e-22)
(-0.1867269989 -0.2399994517 5.237594202e-22)
(-0.1464277233 -0.2560005827 0)
(-0.09393294322 -0.233054071 -1.488630342e-22)
(-0.04021329772 -0.1639151912 1.932022898e-22)
(-0.003200334477 -0.05859418108 -3.406030901e-22)
(-0.0002023488532 0.05295090227 0)
(-0.01067620624 0.1247567294 9.177786038e-22)
(-0.02629094662 0.1686611235 -2.439247563e-23)
(-0.04501956099 0.191556677 9.187998643e-22)
(-0.06495581849 0.1992067861 -2.510461164e-23)
(-0.08537732071 0.1955368894 2.836724809e-23)
(-0.105943024 0.182732406 -2.810830211e-23)
(-0.126506715 0.1616222912 -1.659592566e-23)
(-0.1469161159 0.1321611186 -5.256082047e-22)
(-0.1668642842 0.09390129373 -8.89950585e-24)
(-0.1857501323 0.04642827761 9.652636429e-24)
(-0.202498227 -0.01020054305 3.310881174e-22)
(-0.2154338885 -0.07494882637 -5.81628251e-22)
(-0.2220355419 -0.1449721968 0)
(-0.2188121231 -0.2146093992 8.87931048e-22)
(-0.2016281323 -0.2739294145 -4.933970001e-22)
(-0.1668606061 -0.3075071369 -1.570024659e-23)
(-0.1140158611 -0.295312722 0)
(-0.05287990714 -0.2195292948 -1.884749707e-22)
(-0.004748459525 -0.08375289614 3.355184222e-22)
(-0.0003651580809 0.05900108705 1.550175671e-23)
(-0.01050223665 0.1379328552 -8.759347123e-22)
(-0.02442725476 0.1856046861 -1.156498644e-21)
(-0.04028695103 0.2100549374 -8.623977613e-22)
(-0.05633250528 0.2181545234 0)
(-0.07217860451 0.2145502473 3.511562059e-23)
(-0.08782664471 0.201827567 -7.290127437e-23)
(-0.1034948153 0.1809689367 5.864004874e-23)
(-0.119440658 0.1518884262 3.019176492e-22)
(-0.1358384604 0.1139225062 -1.127461258e-23)
(-0.1526554408 0.06623749688 0)
(-0.1694993952 0.008212667663 -3.601505823e-22)
(-0.1853210717 -0.06011538348 7.511421966e-22)
(-0.1980850252 -0.1372237263 8.827383419e-22)
(-0.2043871256 -0.2188699835 -5.292574735e-22)
(-0.1991203544 -0.2959103415 5.159380787e-22)
(-0.1760725385 -0.3513427401 1.076363027e-23)
(-0.1300921139 -0.3583517573 -1.093648048e-23)
(-0.06688640404 -0.2842763804 -8.262584975e-23)
(-0.007082773836 -0.1169743404 0)
(-0.0009106241635 0.06538269467 -1.910594098e-23)
(-0.01168485877 0.1502348405 -1.326416049e-21)
(-0.0239081425 0.1999999078 1.093710173e-21)
(-0.03604301505 0.2243475923 6.732068931e-22)
(-0.04661192166 0.2315871192 6.011947462e-22)
(-0.05581713417 0.2271783379 6.640769389e-22)
(-0.06416575692 0.214132622 -4.456208087e-23)
(-0.07233426664 0.1936235764 -3.459595912e-22)
(-0.08103250937 0.1655959728 2.151095427e-22)
(-0.09093740811 0.1292809956 0)
(-0.1026214159 0.08355484702 0)
(-0.1164282319 0.02723387906 2.654373966e-22)
(-0.1322222062 -0.04058044081 8.197605841e-23)
(-0.1489832255 -0.119970208 -2.819450666e-22)
(-0.1641783081 -0.2088855543 -5.409042423e-23)
(-0.1728266677 -0.3006523943 1.302534115e-22)
(-0.1670571278 -0.3792826724 -3.398050653e-22)
(-0.1365421013 -0.4135932145 -1.614357927e-23)
(-0.08018525413 -0.3537864357 8.251293076e-23)
(-0.01050746402 -0.1593907018 -6.035296944e-22)
(-0.002261545478 0.07347662536 0)
(-0.01581412008 0.1626164738 2.145045053e-21)
(-0.02667399483 0.211737429 0)
(-0.03426034553 0.2333334448 -1.351295746e-21)
(-0.03764308625 0.2377165297 6.187187685e-23)
(-0.0380561531 0.2312040399 -6.190109906e-22)
(-0.03674967869 0.2171525982 -4.754226625e-22)
(-0.03496289316 0.1968734082 8.297386009e-22)
(-0.03386430351 0.170330948 -1.884753086e-22)
(-0.03457581234 0.1367338487 0)
(-0.03819207857 0.09482021306 0)
(-0.04572387373 0.04307402401 2.412268452e-23)
(-0.0579781378 -0.02010293534 -6.005143542e-22)
(-0.07521055179 -0.0961713531 -4.308111079e-22)
(-0.09650874767 -0.1855216127 4.636905294e-22)
(-0.1183931876 -0.2853234545 -6.486063156e-22)
(-0.1333062252 -0.3838038105 9.109097598e-23)
(-0.1265555527 -0.4503990416 2.958814516e-23)
(-0.08899860769 -0.4198173573 5.6614421e-22)
(-0.01526957938 -0.2111518487 6.023923774e-22)
(-0.005181799527 0.08597431323 0)
(-0.0252663287 0.1766060024 1.46583558e-22)
(-0.03485907928 0.2205582543 -4.915675352e-23)
(-0.03644022197 0.235439765 7.640344705e-22)
(-0.03023884116 0.2342939833 -7.002827971e-22)
(-0.01923143251 0.2241199171 4.744702216e-23)
(-0.005688507702 0.2083231454 -1.018485664e-22)
(0.008491197094 0.1881083154 -3.38841552e-22)
(0.02171790044 0.1633892982 2.062084606e-22)
(0.032547833 0.1333350074 0)
(0.03950763511 0.09666134537 0)
(0.0410978808 0.05176714536 -2.901807742e-22)
(0.0357178308 -0.003226639309 0)
(0.02192090899 -0.0705554035 -5.511371296e-22)
(-0.001318668542 -0.1525480511 -1.487986246e-23)
(-0.03314999831 -0.2505723586 2.559171423e-23)
(-0.06912854764 -0.359912336 2.201840344e-22)
(-0.09230196259 -0.4575211885 4.792899372e-24)
(-0.08719053526 -0.4697891181 -5.790509563e-22)
(-0.02103227816 -0.2698816786 0)
(-0.01111679261 0.1085969375 0)
(-0.0424978681 0.1947042502 -8.846157066e-22)
(-0.04797719058 0.2257969396 -5.410073367e-22)
(-0.03923187293 0.2281829818 4.542984643e-22)
(-0.01882880824 0.2182000887 -1.71101491e-24)
(0.007601989471 0.2027924898 -4.559863277e-23)
(0.03660935063 0.1847399104 5.694755829e-22)
(0.06575458792 0.1646990166 -2.765949183e-23)
(0.09319445285 0.1423106133 -2.069028406e-22)
(0.1173142209 0.116635032 3.141268766e-23)
(0.1364755046 0.08642674135 -3.42502869e-23)
(0.1489020874 0.05019701695 -3.689866205e-23)
(0.1524698182 0.006181532236 3.205110991e-22)
(0.144886413 -0.04793983459 6.118728683e-22)
(0.1234726047 -0.1152869695 -5.100590861e-22)
(0.08629958877 -0.2004051933 -1.616088938e-22)
(0.03195963523 -0.3067695558 1.531051293e-22)
(-0.02364357669 -0.423972547 7.293712597e-23)
(-0.06493321374 -0.4871485779 1.913257762e-21)
(-0.0251009668 -0.3291445379 2.954953115e-21)
(-0.02004648026 0.1460757036 -4.389617557e-23)
(-0.06416813743 0.2112937195 4.416786774e-23)
(-0.05071537453 0.2177201465 1.000048404e-21)
(-0.0193654415 0.2014513705 -8.242540288e-24)
(0.02410803401 0.1808878417 0)
(0.07149342584 0.1606742157 4.362657558e-23)
(0.1190140698 0.1416342963 -2.273197854e-22)
(0.1644151368 0.1233086422 -9.025194785e-23)
(0.2061615444 0.1048089716 3.679565841e-23)
(0.2429020922 0.08507518218 -1.701143612e-23)
(0.2731626356 0.06297065689 3.42908095e-23)
(0.2952018021 0.03727572053 -6.591327813e-23)
(0.3066520185 0.006549378622 -9.302117822e-23)
(0.3049358225 -0.03086392737 1.516902573e-22)
(0.2863627105 -0.07785149061 0)
(0.2470321874 -0.1399221563 1.505670317e-22)
(0.181072293 -0.2266264029 2.559902742e-22)
(0.09602961116 -0.3443850972 0)
(-0.006705229887 -0.4552163327 -3.675564017e-21)
(-0.01922532828 -0.3777494163 -2.892582922e-21)
(-0.02591859623 0.2276859944 -9.51386542e-22)
(-0.03998179344 0.2238237993 -1.388860811e-22)
(0.03655974209 0.1810566366 -2.335242161e-22)
(0.1090421126 0.1450999761 -1.193524396e-22)
(0.1817022884 0.1172360053 -4.295420702e-23)
(0.2489830717 0.09627003303 9.781251995e-23)
(0.3099996866 0.08001738822 -1.408226655e-22)
(0.3645811905 0.06656299413 1.296788318e-22)
(0.4125825265 0.05448989677 -8.61740991e-23)
(0.4535823081 0.04271035262 1.132058505e-25)
(0.486747803 0.03032715641 1.527386527e-23)
(0.5107097648 0.01653505451 7.995560488e-23)
(0.5236305772 0.0005429266372 -1.810853634e-22)
(0.5231575841 -0.01862750001 -1.617003545e-22)
(0.5052160239 -0.04285976309 -4.262656891e-23)
(0.4658600309 -0.076329161 0)
(0.3952613404 -0.1286079576 -1.846253895e-22)
(0.2916008453 -0.2208465314 8.148515437e-22)
(0.119741717 -0.3525014323 1.631564247e-21)
(0.02670451285 -0.3775492322 2.172636238e-21)
(0.2142904006 0.1347456562 9.864614647e-22)
(0.2776340893 0.09870623529 0)
(0.431662541 0.05810471009 -2.594119939e-22)
(0.5304763076 0.03846245708 -1.74153483e-22)
(0.6016940614 0.02623343287 0)
(0.6571125835 0.01831827545 -6.007982723e-23)
(0.7015095211 0.01313518821 6.376283009e-23)
(0.7375890201 0.009541679729 -1.799545457e-23)
(0.7669198499 0.006804526634 2.885011822e-23)
(0.7901937229 0.004465314741 2.314304313e-23)
(0.8074402428 0.002222292583 0)
(0.8182497595 -0.0001488553129 -2.872399202e-23)
(0.8216411698 -0.002722568698 0)
(0.8162343231 -0.00571170569 2.737777999e-23)
(0.7991311559 -0.009610817063 1.421776346e-23)
(0.767998429 -0.01500240053 -5.799159207e-23)
(0.7106561183 -0.02502545337 -2.535525113e-22)
(0.623518745 -0.04204315148 -6.917907445e-22)
(0.4230090664 -0.09182998819 0)
(0.2705673774 -0.1524023235 -2.119464585e-21)
)


// ************************************************************************* //
