/*--------------------------------*- C++ -*----------------------------------*\
  =========                 |
  \\      /  F ield         | OpenFOAM: The Open Source CFD Toolbox
   \\    /   O peration     | Website:  https://openfoam.org
    \\  /    A nd           | Version:  13
     \\/     M anipulation  |
\*---------------------------------------------------------------------------*/
FoamFile
{
    format      ascii;
    class       scalarField;
    location    "20.24";
    object      p_all;
}
// * * * * * * * * * * * * * * * * * * * * * * * * * * * * * * * * * * * * * //


400
(
9.558654711e-07
-0.0005461162279
-0.0008879092425
-0.001015154052
-0.0009360958481
-0.0006830793414
-0.0002936684119
0.0001961565976
0.0007498844908
0.001327044277
0.001882010118
0.00236194609
0.002711470091
0.002877499804
0.00281850837
0.00251649392
0.001991887989
0.001301801362
0.0006431618719
4.745213095e-05
0.0005889149547
7.934396691e-06
-0.0003555389953
-0.0004976240986
-0.0004667462841
-0.0002894692784
4.825110225e-06
0.0003868462326
0.000825188993
0.001282599258
0.001719247236
0.002083997699
0.002326489821
0.002399366244
0.002268753901
0.001925866758
0.001397421865
0.0007484361992
0.0001510664572
-0.0005114644508
0.0009528858858
0.0003088383625
-9.21281214e-05
-0.0002382096735
-0.0002318390426
-0.0001030850713
0.0001240103399
0.0004281511011
0.0007856028149
0.001164393928
0.001532612096
0.001836263636
0.002025402729
0.002051314775
0.001878864561
0.001498221949
0.0009333370205
0.0002407331462
-0.0004574648872
-0.001294198459
0.000976432081
0.0002586549783
-0.0001912783428
-0.000343304033
-0.0003522739814
-0.0002549768893
-7.205969306e-05
0.0001838703412
0.0004992558409
0.0008538223891
0.00120648205
0.00151423229
0.001716321004
0.001752236287
0.001573118623
0.00115557707
0.0005114121855
-0.0003126674757
-0.001227662199
-0.002378068105
0.0004808491676
-0.0002842454489
-0.0007628206317
-0.0009142253312
-0.000934898341
-0.0008660689933
-0.0007227312846
-0.0005053684804
-0.0002137207608
0.000142938623
0.0005341884111
0.000911757858
0.001204451473
0.001331409188
0.001216239735
0.0008057577146
8.590930096e-05
-0.0009112622133
-0.002120835166
-0.003648844999
-0.0006855871812
-0.001466006199
-0.00195472456
-0.002105444737
-0.002147789187
-0.002123916258
-0.00203896328
-0.001875773379
-0.001613142775
-0.001240681741
-0.0007739360744
-0.0002574366815
0.0002262233709
0.0005672522222
0.0006437822498
0.0003477176637
-0.000386514607
-0.001557137583
-0.003127447526
-0.005134083578
-0.002660256833
-0.003421664484
-0.00391320264
-0.004078190587
-0.004175009034
-0.004243378572
-0.004273639709
-0.004223829663
-0.004041548615
-0.003683056975
-0.003133838888
-0.002419644623
-0.001626347887
-0.0008963136259
-0.0004177516157
-0.0003915971895
-0.0009809897208
-0.002253002212
-0.00422466608
-0.006819562379
-0.00555226724
-0.006266981126
-0.00676494332
-0.006978417509
-0.007191103288
-0.007438108751
-0.007690819068
-0.00787488932
-0.007893964967
-0.007651715083
-0.007078030799
-0.006150010721
-0.004934366278
-0.003595783893
-0.002405233853
-0.001706148034
-0.001834985818
-0.003006675907
-0.00535967191
-0.008652758363
-0.009430968287
-0.01007720866
-0.01059375751
-0.01090542559
-0.01131994072
-0.01186868481
-0.01250278289
-0.0131098767
-0.01353688838
-0.01361156856
-0.01317014236
-0.01210867384
-0.01041584728
-0.008244971845
-0.005945531294
-0.004051905025
-0.003180767662
-0.003833895037
-0.006417028201
-0.01048156468
-0.01431100049
-0.01487002777
-0.01541670832
-0.01587528139
-0.01658204581
-0.01757078359
-0.01877607286
-0.02004663098
-0.02116371049
-0.02185867746
-0.02184181334
-0.02085657241
-0.01875663135
-0.01560566658
-0.01178182294
-0.008025378355
-0.005349067048
-0.0047500294
-0.007171108489
-0.01196870389
-0.02014672412
-0.02059713081
-0.02116704499
-0.0217883098
-0.02284244697
-0.02437910282
-0.02632615594
-0.02849872911
-0.03061106535
-0.03228578011
-0.03307683823
-0.03252219722
-0.03026449303
-0.02616175295
-0.02050941929
-0.01419013138
-0.00867935469
-0.005715634964
-0.007208780421
-0.01245574114
-0.0268471144
-0.02715320243
-0.0276934403
-0.02841311782
-0.02977804296
-0.03187627722
-0.03464411557
-0.03787294684
-0.04121556132
-0.04418548259
-0.04616795681
-0.04645873055
-0.04444363403
-0.03964176749
-0.03210434339
-0.02268389647
-0.01325356526
-0.006474492662
-0.005798129551
-0.01075496702
-0.03432417176
-0.03440806381
-0.03477934807
-0.03539380176
-0.03687990295
-0.03939638132
-0.04290448849
-0.04718022607
-0.05182103684
-0.05623833219
-0.05965934937
-0.06117080188
-0.05976043255
-0.05463804624
-0.04542493766
-0.03268530443
-0.01844044318
-0.006234838017
-0.00166409241
-0.00486443447
-0.04259850214
-0.04226869973
-0.04218508846
-0.0422850212
-0.04350175263
-0.04610291707
-0.05008431056
-0.05520334165
-0.06099664069
-0.06677703299
-0.07162104289
-0.07439473737
-0.07381566452
-0.06865963063
-0.05805837269
-0.0420497656
-0.0224293621
-0.00324776108
0.007355386866
0.008348766388
-0.05199881158
-0.05075021231
-0.04966749278
-0.04856856907
-0.04891572479
-0.05110782062
-0.05515879093
-0.06078057937
-0.06741866959
-0.07427261227
-0.0802659458
-0.08406066294
-0.08411696857
-0.07882590982
-0.06683308972
-0.04751513227
-0.02212019913
0.005508310454
0.02472119509
0.03353224079
-0.06364492386
-0.06017907027
-0.05708798611
-0.05375542901
-0.05245620521
-0.05366970109
-0.05735266265
-0.0631247403
-0.07024784036
-0.07778602493
-0.08447844023
-0.0887733041
-0.08888812496
-0.08283171675
-0.0688450613
-0.04561662684
-0.01374839304
0.02441985102
0.05554232739
0.07735800219
-0.08017675862
-0.0710662739
-0.06411361728
-0.05715865392
-0.05342469978
-0.05320766493
-0.05624966791
-0.06190295821
-0.06924681917
-0.07710450449
-0.08400054307
-0.08814175745
-0.0874724763
-0.07965132932
-0.06247683674
-0.03404976108
0.005563440504
0.05859512305
0.1058230021
0.1480674938
-0.1105000288
-0.08584840674
-0.07160178777
-0.05896765435
-0.05191002165
-0.04987846886
-0.0520963533
-0.05750054773
-0.06484993175
-0.07269835072
-0.07933046034
-0.08270555824
-0.08051417839
-0.06988367188
-0.04823145614
-0.01272362614
0.03823380229
0.10712995
0.1779764813
0.2564741817
-0.1684319622
-0.09990415264
-0.07500605075
-0.05479659793
-0.04461751796
-0.04158265294
-0.04371322859
-0.0493750676
-0.05700913826
-0.06496205251
-0.0713533639
-0.07397309065
-0.07012405967
-0.05701061287
-0.03102791588
0.01192796716
0.07559676235
0.166401134
0.2761588205
0.4377013224
-0.3984233835
-0.138095645
-0.07496861954
-0.04708782824
-0.03354881
-0.03002831103
-0.0327985116
-0.03925923201
-0.04755136682
-0.05593110678
-0.06249234724
-0.06502265825
-0.06098992474
-0.04696631293
-0.01875560936
0.02993467925
0.1069534986
0.2334244917
0.4198773006
0.7800206263
)


// ************************************************************************* //
