/*--------------------------------*- C++ -*----------------------------------*\
  =========                 |
  \\      /  F ield         | OpenFOAM: The Open Source CFD Toolbox
   \\    /   O peration     | Website:  https://openfoam.org
    \\  /    A nd           | Version:  13
     \\/     M anipulation  |
\*---------------------------------------------------------------------------*/
FoamFile
{
    format      ascii;
    class       scalarField;
    location    "42.31";
    object      p_all;
}
// * * * * * * * * * * * * * * * * * * * * * * * * * * * * * * * * * * * * * //


400
(
3.619437318e-08
-0.0005474657683
-0.0008895117103
-0.001017004457
-0.0009381628939
-0.0006853211582
-0.0002960266387
0.0001937275849
0.0007473888349
0.001324446155
0.001879259864
0.00235899442
0.002708276759
0.002874018576
0.002814678351
0.002512249138
0.001987195098
0.001296657984
0.0006377263424
4.182476095e-05
0.0005881925874
6.887294216e-06
-0.000356849806
-0.0004991655024
-0.0004685101039
-0.0002914661731
2.599337394e-06
0.0003844254134
0.0008226149755
0.001279885123
0.001716363632
0.002080884814
0.002323084908
0.002395615397
0.002264617993
0.001921318866
0.001392456968
0.0007430819172
0.000145431738
-0.000517246467
0.0009524544568
0.000308037213
-9.323530935e-05
-0.0002395655668
-0.0002334268424
-0.0001049152151
0.0001219119866
0.0004257704115
0.0007829496089
0.001161459784
0.001529493508
0.001832907404
0.002021760292
0.002047327949
0.001874482977
0.00149341812
0.0009281166446
0.0002351356068
-0.0004633321552
-0.001300296622
0.0009761617966
0.00025800222
-0.0001922665275
-0.0003445844791
-0.0003538518261
-0.0002568585455
-7.4256674e-05
0.0001813440567
0.0004963994041
0.0008506874385
0.001203028655
0.001510504789
0.001712309993
0.001747903841
0.001568414417
0.00115045933
0.0005058672684
-0.0003186199836
-0.001233949435
-0.002384741767
0.0004804832903
-0.0002849842667
-0.0007638841979
-0.0009156003649
-0.0009366456606
-0.0008682308262
-0.0007253212981
-0.0005083781917
-0.0002171301434
0.000139172328
0.0005301039376
0.000907398541
0.001199834916
0.001326524211
0.001211046427
0.0008002023662
7.994563031e-05
-0.0009176570251
-0.00212764074
-0.003656136867
-0.000686366504
-0.001467150189
-0.001956184269
-0.00210723199
-0.002150018377
-0.002126683337
-0.002042313167
-0.00187969232
-0.001617573007
-0.001245535756
-0.0007791207594
-0.0002628652091
0.0002206125494
0.0005614835014
0.0006378336375
0.000341526564
-0.0003930359894
-0.001564077038
-0.003134862941
-0.005142100462
-0.00266181661
-0.003423544885
-0.003915410388
-0.004080780048
-0.00417814163
-0.004247197317
-0.004278225268
-0.00422917958
-0.004047579998
-0.003689626059
-0.003140769716
-0.002426769311
-0.001633524985
-0.0009034564142
-0.0004248473006
-0.000398712396
-0.0009882602838
-0.002260602313
-0.004232763628
-0.00682834467
-0.005555007082
-0.006269942082
-0.006768240501
-0.006982189725
-0.007195574154
-0.007443466991
-0.007697173978
-0.00788224658
-0.007902221114
-0.00766066827
-0.007087402268
-0.006159544173
-0.004943793892
-0.003604914305
-0.002413983176
-0.001714565208
-0.001843251509
-0.003015065525
-0.005368501284
-0.008662298315
-0.00943524216
-0.0100815723
-0.01059844814
-0.01091069652
-0.01132610207
-0.01187598415
-0.01251135901
-0.013119736
-0.01354790173
-0.01362347908
-0.013182606
-0.0121212512
-0.01042815514
-0.008256685749
-0.005956457172
-0.004062033277
-0.003190297452
-0.003843198006
-0.006426594465
-0.01049178418
-0.01431702423
-0.01487600718
-0.01542299454
-0.01588224254
-0.01659008518
-0.01758021956
-0.01878708129
-0.02005921489
-0.02117770638
-0.02187376595
-0.02185754967
-0.02087243574
-0.01877209492
-0.01562026707
-0.01179523817
-0.008037498579
-0.005360055619
-0.004760313847
-0.007181335097
-0.011979417
-0.02015453259
-0.02060476081
-0.02117494799
-0.02179695121
-0.02285230793
-0.02439056764
-0.02633944017
-0.02851383039
-0.03062777619
-0.03230371487
-0.03309547536
-0.03254092705
-0.03028270637
-0.02617890555
-0.02052509952
-0.0142041269
-0.008691734257
-0.00572680344
-0.00721944974
-0.01246659715
-0.0268565537
-0.02716231883
-0.02770275766
-0.0284231726
-0.02978937144
-0.03188931027
-0.03465909906
-0.03788986656
-0.04123415628
-0.04420528515
-0.0461883615
-0.04647901146
-0.04446331291
-0.0396602612
-0.03212124663
-0.02269896891
-0.01326677434
-0.006486133303
-0.005808824862
-0.01076542083
-0.03433491108
-0.03441832536
-0.03478966929
-0.03540475386
-0.03689206464
-0.03941021699
-0.04292026241
-0.04719790065
-0.05184029805
-0.05625861564
-0.0596799742
-0.06119113855
-0.05977976277
-0.05465600867
-0.04544128479
-0.03269992501
-0.01845330373
-0.006246110314
-0.001674153771
-0.004873788378
-0.04261005464
-0.04227962757
-0.04219585111
-0.04229617386
-0.04351392156
-0.04611661879
-0.05009983722
-0.05522061073
-0.06101529569
-0.06679640941
-0.07164035595
-0.07441325676
-0.07383281663
-0.06867513515
-0.05807219668
-0.04206206831
-0.02244027691
-0.003257444115
0.007346850024
0.008341246085
-0.05201056285
-0.05076121657
-0.04967804017
-0.04857913978
-0.04892700696
-0.0511204388
-0.05517313951
-0.06079649183
-0.0674358022
-0.07429017121
-0.08028305046
-0.08407650448
-0.08413093682
-0.0788378221
-0.06684308343
-0.04752369078
-0.02212771845
0.005501545169
0.02471514762
0.03352718799
-0.06365616289
-0.06018945992
-0.05709760314
-0.05376465224
-0.05246579752
-0.05368047169
-0.0573653245
-0.06313852878
-0.07026300457
-0.07780146891
-0.08449315862
-0.0887863713
-0.08889868942
-0.0828399627
-0.06885104525
-0.04562106603
-0.01375174292
0.02441668997
0.05553944342
0.07735568403
-0.08018671872
-0.07107527466
-0.06412152864
-0.05716583289
-0.05343199672
-0.05321608893
-0.05625985563
-0.0619148893
-0.06926004077
-0.07711803184
-0.08401329532
-0.08815275089
-0.08748118044
-0.07965689722
-0.0624797416
-0.03405065261
0.005564739021
0.05859391799
0.1058229581
0.148067666
-0.1105081054
-0.08585541014
-0.07160737528
-0.05897241211
-0.05191482288
-0.04988458154
-0.05210440425
-0.0575105709
-0.06486140433
-0.07271029024
-0.07934170897
-0.08271500347
-0.08052072538
-0.0698876242
-0.04823268636
-0.0127227185
0.03823606099
0.1071320299
0.177978593
0.2564764318
-0.1684382836
-0.09990957369
-0.07500966466
-0.05479929226
-0.04462044411
-0.0415869897
-0.0437196356
-0.04938357951
-0.05701924676
-0.0649728218
-0.07136369012
-0.07398196001
-0.07013075266
-0.05701422603
-0.03102882351
0.01192922042
0.07559941201
0.1664041805
0.2761619594
0.4377042225
-0.3984295661
-0.1381007258
-0.07497183137
-0.04708984585
-0.03355092319
-0.03003173994
-0.03280395975
-0.03926678659
-0.0475605877
-0.05594114634
-0.06250216195
-0.06503122686
-0.06099645904
-0.04697024867
-0.01875703632
0.02993534762
0.1069556046
0.2334271941
0.4198801493
0.7800233311
)


// ************************************************************************* //
