/*--------------------------------*- C++ -*----------------------------------*\
  =========                 |
  \\      /  F ield         | OpenFOAM: The Open Source CFD Toolbox
   \\    /   O peration     | Website:  https://openfoam.org
    \\  /    A nd           | Version:  13
     \\/     M anipulation  |
\*---------------------------------------------------------------------------*/
FoamFile
{
    format      ascii;
    class       scalarField;
    location    "35";
    object      p_all;
}
// * * * * * * * * * * * * * * * * * * * * * * * * * * * * * * * * * * * * * //


400
(
1.00101374e-09
-0.0005254014307
-0.001165298189
-0.001659155299
-0.001887728156
-0.001802082796
-0.001378228969
-0.0006057717569
0.0005057867364
0.001912137286
0.003519318144
0.005177510939
0.006691889627
0.007853912854
0.008491140155
0.008523310615
0.008005436792
0.007141878206
0.006262180198
0.005711271676
0.0005323220878
-1.123962704e-05
-0.0005755470004
-0.0009696502519
-0.001140344548
-0.001061092373
-0.0007112652536
-7.634534492e-05
0.0008434990813
0.002018857338
0.003376369361
0.004791717458
0.006096855233
0.007108008358
0.007670871686
0.007712263731
0.007278172169
0.006538941655
0.00575398284
0.005193376803
0.00119725412
0.000516309964
-7.995675054e-05
-0.0004399042315
-0.0005956363687
-0.0005547253171
-0.0003024566813
0.0001831329738
0.0009178039608
0.001893629501
0.003060852098
0.00431638983
0.005506880841
0.006452972159
0.006994176345
0.007042963282
0.006625146566
0.005879406486
0.005009930973
0.004279417194
0.001673850686
0.0007955313823
8.313601024e-05
-0.0003197285089
-0.0005221241197
-0.0005643397987
-0.0004353874007
-0.0001012515782
0.0004758872301
0.001314899796
0.002391105151
0.003617453755
0.004840862934
0.005862962637
0.00648723596
0.006582597988
0.006136792031
0.005261502858
0.004142114171
0.003110950722
0.001708879218
0.000630713416
-0.0002238595991
-0.0007132353483
-0.001012012536
-0.001185653285
-0.00122090613
-0.001065594173
-0.0006530509715
6.961511146e-05
0.00110929492
0.002398763922
0.003781994922
0.00502847009
0.00588073858
0.006131162561
0.005699048328
0.004656774814
0.00319094792
0.0017635718
0.001092741772
-0.0001638077496
-0.001162245225
-0.001767383663
-0.002209272375
-0.002570572156
-0.002829514597
-0.002909479325
-0.002707126569
-0.002124990871
-0.001111402021
0.0003008539666
0.001961330911
0.003604428516
0.004889535884
0.005490849144
0.005209218654
0.004039828403
0.002168023245
0.000246368977
-0.0003510086189
-0.001754037354
-0.002889856934
-0.003637393633
-0.004273258965
-0.004891227684
-0.005456819152
-0.005864116985
-0.005965052868
-0.005603605143
-0.004661680874
-0.003115139248
-0.001080261619
0.001153549093
0.003147448644
0.004407792561
0.004540356346
0.003385324451
0.001087940757
-0.001439186199
-0.002758626025
-0.004269999761
-0.005532815355
-0.006448926179
-0.007334041574
-0.008290184216
-0.009269628133
-0.01013542925
-0.01068838325
-0.01069920249
-0.009957620798
-0.008340158913
-0.005887837739
-0.002876513483
0.0001625528474
0.002520781924
0.003504556817
0.002663361355
-5.842379335e-07
-0.003245784609
-0.006214502446
-0.007791409422
-0.009165390276
-0.01027001154
-0.01145530064
-0.01283320349
-0.01434708823
-0.01583195798
-0.01703520458
-0.01764193802
-0.0173219302
-0.01580656162
-0.01299687329
-0.009086303568
-0.004653518023
-0.0006418404434
0.001838879942
0.001842536026
-0.0009779989255
-0.005019144506
-0.01074151497
-0.01233687236
-0.01379367719
-0.01508506122
-0.01659629308
-0.0184572269
-0.0206121882
-0.02287648315
-0.0249479137
-0.02642066807
-0.02682343703
-0.02569811387
-0.02273413595
-0.01794141138
-0.01184608874
-0.005582250188
-0.000763134646
0.0009101637615
-0.001603931901
-0.006411226479
-0.01630089966
-0.01786220416
-0.01934710829
-0.02077506452
-0.02257920399
-0.02492420987
-0.02777045365
-0.03092596224
-0.03404829542
-0.03664457274
-0.03809494191
-0.03772169036
-0.03494612996
-0.02947736022
-0.0216395359
-0.01261861592
-0.004521578773
-5.615221432e-05
-0.001439351969
-0.006748803221
-0.02281094396
-0.02427501849
-0.02568380534
-0.02711139094
-0.0290738087
-0.03180001136
-0.0352848845
-0.03934147573
-0.04359748403
-0.04748307331
-0.05023907776
-0.05097209214
-0.04877165066
-0.04298958015
-0.03357463645
-0.02153341929
-0.009298121016
-0.000714847739
0.000287008928
-0.004837345796
-0.03019615815
-0.03147168099
-0.03261198364
-0.03376632296
-0.03560782144
-0.03847444157
-0.04241248494
-0.04724464248
-0.052571686
-0.05775396585
-0.06190519016
-0.06392671287
-0.06261489089
-0.05690094115
-0.04624116948
-0.03120529562
-0.01421907615
-0.0001558799978
0.004915194307
0.001319738365
-0.03848899204
-0.03940212112
-0.03992247586
-0.04033518494
-0.04160270328
-0.04422686332
-0.04830910709
-0.05366786702
-0.05986207048
-0.06617511308
-0.07159982194
-0.07485551326
-0.07447255755
-0.06899340018
-0.05734529187
-0.03947048553
-0.01737745993
0.003452812602
0.01470554412
0.01487963099
-0.04803269664
-0.04817244667
-0.04742283298
-0.04636027097
-0.046429078
-0.04832907947
-0.05218341459
-0.05776085342
-0.06453751292
-0.07169013022
-0.07807668733
-0.08224012564
-0.08247157548
-0.07697708582
-0.06420377215
-0.04341841279
-0.01587190505
0.01302076511
0.03309426011
0.04037990548
-0.05982818777
-0.05821277894
-0.05498169222
-0.05136786264
-0.04949188442
-0.05018009036
-0.05346879077
-0.05899008903
-0.0660694783
-0.07372640571
-0.08064852101
-0.08518262941
-0.08537940686
-0.07913403205
-0.06447749963
-0.04007152403
-0.006266217566
0.03230613812
0.06448872865
0.0832697597
-0.07612352634
-0.07059331344
-0.0625700696
-0.05491046247
-0.05032766255
-0.04942767142
-0.05194178476
-0.05723791759
-0.06440825587
-0.07225697532
-0.07926104526
-0.08354012933
-0.08287667581
-0.07482281423
-0.05697037722
-0.02739072441
0.01449085844
0.06542515419
0.1143287049
0.1501239995
-0.1040674818
-0.08785266175
-0.06993697287
-0.05625071982
-0.04835390514
-0.04573229988
-0.04749015016
-0.05257760191
-0.05976574503
-0.06760771473
-0.07436147598
-0.07791826063
-0.07578500952
-0.06511133066
-0.04289305242
-0.006295594502
0.04663829348
0.1152200669
0.1913955281
0.2582003552
-0.1758940475
-0.1148225566
-0.0735900579
-0.05189611735
-0.04118912263
-0.03755587992
-0.03921880094
-0.04461860895
-0.05215788828
-0.06017933585
-0.06680585641
-0.06978293187
-0.06642795504
-0.0535531993
-0.02742470567
0.01630480756
0.08259934417
0.1772413102
0.3052878407
0.4525823938
-0.3557654523
-0.1551881273
-0.07040217633
-0.04278124467
-0.03135421807
-0.02758458684
-0.02972415045
-0.03586242189
-0.04406912937
-0.05255456769
-0.05941301102
-0.06238431243
-0.05873725852
-0.04513504555
-0.01727138616
0.03073659309
0.1083180448
0.2332441539
0.4346939512
0.7357687087
)


// ************************************************************************* //
