/*--------------------------------*- C++ -*----------------------------------*\
  =========                 |
  \\      /  F ield         | OpenFOAM: The Open Source CFD Toolbox
   \\    /   O peration     | Website:  https://openfoam.org
    \\  /    A nd           | Version:  13
     \\/     M anipulation  |
\*---------------------------------------------------------------------------*/
FoamFile
{
    format      ascii;
    class       surfaceScalarField;
    location    "35";
    object      phi_0;
}
// * * * * * * * * * * * * * * * * * * * * * * * * * * * * * * * * * * * * * //

dimensions      [0 3 -1 0 0 0 0];

internalField   nonuniform List<scalar> 
760
(
-1.321971541e-05
1.321768574e-05
-7.201820487e-05
5.879849264e-05
-0.0001620728827
9.0054684e-05
-0.0002652228697
0.0001031499977
-0.000368242426
0.0001030195645
-0.0004615041767
9.326174928e-05
-0.0005377497612
7.624557607e-05
-0.0005912418373
5.349207054e-05
-0.0006175090417
2.626720893e-05
-0.0006135890829
-3.919945984e-06
-0.0005784597797
-3.51292898e-05
-0.0005138426124
-6.46171596e-05
-0.0004246593923
-8.91832192e-05
-0.0003192817381
-0.0001053776563
-0.0002092254323
-0.0001100563071
-0.0001081386598
-0.000101086772
-2.99250792e-05
-7.821357852e-05
1.414927533e-05
-4.407434557e-05
2.19095186e-05
-7.760215954e-06
2.190955089e-05
-6.870372185e-05
8.19214112e-05
-0.0002457758215
0.0002358706048
-0.0004934732383
0.000337752101
-0.0007722776496
0.0003819544054
-0.001050408977
0.0003811508994
-0.001303005542
0.0003458583362
-0.001510603479
0.0002838435376
-0.00165787141
0.000200760014
-0.001733198929
0.0001015947212
-0.00172930475
-7.814146091e-06
-0.001643830536
-0.0001206035139
-0.001481413301
-0.0002270343884
-0.001254381303
-0.0003162151967
-0.0009832945196
-0.0003764644164
-0.0006961414395
-0.0003972093735
-0.0004257314238
-0.0003714967842
-0.0002049933154
-0.0002989516808
-5.981238013e-05
-0.0001892552539
-4.922170208e-07
-6.708033883e-05
2.141735548e-05
-0.0001229343062
0.0002048557211
-0.0004149723337
0.0005279086495
-0.0008086679282
0.000731447707
-0.001247164578
0.0008204510558
-0.001684660684
0.000818646998
-0.002084429201
0.0007456268473
-0.002416964464
0.0006163788036
-0.002658575
0.0004423705608
-0.002790990324
0.0002340100588
-0.002802412304
3.607849049e-06
-0.002687900971
-0.0002351148385
-0.002452960607
-0.000461974745
-0.002114170934
-0.0006550048613
-0.001700373672
-0.0007902616736
-0.001251821983
-0.0008457610657
-0.000816744502
-0.0008065742769
-0.0004446232561
-0.0006710729371
-0.0001762321036
-0.0004576464032
-3.221222548e-05
-0.000211100191
-1.079486386e-05
-0.0001720783274
0.0003769340483
-0.0005725604947
0.0009283908205
-0.001105967169
0.001264854395
-0.001698035428
0.001412519329
-0.002290595655
0.001411207235
-0.002837252682
0.001292283876
-0.003300215319
0.001079341436
-0.003648289963
0.0007904451991
-0.00385633684
0.0004420569353
-0.00390581413
5.308514975e-05
-0.003787745854
-0.0003531830998
-0.00350402323
-0.0007456973528
-0.003071271126
-0.001087756954
-0.002522629801
-0.001338903001
-0.001907995444
-0.001460395443
-0.001290905124
-0.00142366463
-0.0007407540243
-0.001221224065
-0.0003202708364
-0.0008781295979
-7.110222368e-05
-0.0004602687928
-8.189708782e-05
-0.0002170219911
0.0005939560439
-0.0007188328185
0.00143020164
-0.001385654887
0.001931676464
-0.002127122178
0.002153986629
-0.002874372311
0.002158457384
-0.003573193114
0.001991104692
-0.004178976808
0.001685125136
-0.004653581681
0.001265050071
-0.004964195902
0.0007526711516
-0.005084014713
0.0001729039613
-0.004995020793
-0.0004421770092
-0.004691186757
-0.001049531371
-0.004183516238
-0.00159542746
-0.003504388283
-0.002018030958
-0.002710449016
-0.002254334731
-0.001881577213
-0.002252536467
-0.001113232795
-0.001989568511
-0.0005008209058
-0.001490541492
-0.000119142096
-0.0008419475967
-0.0002010391857
-0.000257366604
0.0008513226579
-0.0008513393268
0.002024174367
-0.001642295746
0.002722632883
-0.002526555819
0.003038246705
-0.003426899154
0.003058800727
-0.004283386281
0.002847591829
-0.005046211922
0.002447950785
-0.005671015041
0.001889853194
-0.006116748267
0.001198404377
-0.006345978754
0.0004021344514
-0.006327840328
-0.0004603154246
-0.006042473456
-0.001334898223
-0.005488321282
-0.002149579615
-0.004689979969
-0.002816372263
-0.003705726046
-0.003238588663
-0.002631182317
-0.003327080213
-0.00159422633
-0.00302652451
-0.0007363869455
-0.002348380875
-0.0001821205838
-0.001396213953
-0.0003831597703
-0.0002911839785
0.001142506639
-0.0009641247287
0.002697115132
-0.001864162729
0.003622670893
-0.002878144063
0.004052228047
-0.003923462475
0.004104119147
-0.004936998994
0.003861128354
-0.005865885836
0.00337683763
-0.006660998784
0.002684966141
-0.007273436334
0.001810841926
-0.007653969958
0.0007826680799
-0.007755802492
-0.0003584828778
-0.007539785489
-0.001550915204
-0.00698402486
-0.00270534022
-0.00609581209
-0.003704585015
-0.004925702405
-0.00440869834
-0.003579478605
-0.004673304011
-0.002220387439
-0.004385615671
-0.001050845289
-0.003517923016
-0.0002684676827
-0.002178591555
-0.0006516274525
-0.0003159654318
0.001458472068
-0.001048737094
0.003429886804
-0.002034530772
0.004608464583
-0.003154902321
0.00517259961
-0.004325131143
0.00527434798
-0.005481846838
0.005017844055
-0.006571929316
0.004466920107
-0.007544117811
0.003657154629
-0.008343807871
0.002610531979
-0.008911126989
0.001349987199
-0.00918280289
-8.680696695e-05
-0.009097009635
-0.00163670844
-0.008604581429
-0.003197768404
-0.007684196608
-0.004624969814
-0.006364066466
-0.005728828464
-0.00474604196
-0.006291328503
-0.003022881322
-0.006108776296
-0.001469580842
-0.005071223485
-0.0003882444101
-0.003259927982
-0.001039871861
-0.0003291954792
0.001787667549
-0.00109644262
0.004197133943
-0.002135078859
0.005647100828
-0.003325367132
0.006362887894
-0.004583649894
0.006532630755
-0.005849371225
0.006283565393
-0.007072572511
0.005690121391
-0.008203822079
0.00478840419
-0.009187255498
0.003593965388
-0.009956890749
0.002119622443
-0.01043606658
0.0003923688639
-0.01054224698
-0.001530528032
-0.01019503242
-0.003544982947
-0.009334086885
-0.005485915334
-0.007946627078
-0.007116288255
-0.006105925256
-0.00813203031
-0.00401292921
-0.008201772328
-0.002014592435
-0.007069560249
-0.0005528020574
-0.004721718356
-0.001592673917
-0.0003297928024
0.002117460357
-0.001101701611
0.004969042745
-0.002151422866
0.006696822085
-0.003361077116
0.007572542151
-0.004650844546
0.007822398195
-0.00596595555
0.007598676406
-0.007263377849
0.006987543694
-0.008500564242
0.006025590579
-0.009627009993
0.004720411129
-0.01057860089
0.003071213336
-0.01127459345
0.00108836141
-0.01161814698
-0.001186974507
-0.01150162733
-0.003661502592
-0.0108205245
-0.006167018163
-0.00950299986
-0.008433812882
-0.007560607541
-0.01007442262
-0.005160872325
-0.01060150753
-0.002696115016
-0.009534317551
-0.0007741501594
-0.006643683209
-0.002366824074
-0.0003199349471
0.002437395305
-0.001066686714
0.005715794506
-0.002080423848
0.007710559219
-0.003246814444
0.008738932753
-0.004492307702
0.009067891465
-0.005770872982
0.008877241699
-0.007050315725
0.008266986448
-0.008300541719
0.007275816579
-0.009484301652
0.005904171062
-0.01054996218
0.004136873859
-0.0114256203
0.00196401952
-0.01201417177
-0.0005984230461
-0.01219379408
-0.003481880286
-0.0118209682
-0.006539844046
-0.01075537788
-0.009499403197
-0.008913749825
-0.01191605067
-0.006370857101
-0.01314440025
-0.003498964699
-0.01240620995
-0.001063151208
-0.009079496696
-0.00342997528
-0.000307409518
0.002744804816
-0.001006587712
0.006414972694
-0.001938355182
0.008642326692
-0.002991899446
0.009792477029
-0.00410281401
0.01017880604
-0.005237449608
0.01001187732
-0.006378628733
0.009408165594
-0.007514084628
0.008411272494
-0.008627332701
0.007017419147
-0.009689845196
0.005199386358
-0.01065314341
0.002927317728
-0.01143756884
0.0001860023721
-0.01192945704
-0.002989992093
-0.01196499106
-0.006504310021
-0.01134373925
-0.010120655
-0.00986896776
-0.01339082215
-0.007460113988
-0.01555325401
-0.004363834272
-0.01550248966
-0.001425535494
-0.01201779547
-0.004855510772
-0.0003089284318
0.003053733239
-0.0009555679199
0.007061612179
-0.001768490886
0.009455249666
-0.00263939174
0.0106633779
-0.003518263523
0.01105767785
-0.004389724367
0.01088333819
-0.005256721207
0.01027516246
-0.006129516748
0.009284068061
-0.007017709515
0.007905611935
-0.007923329195
0.00610500605
-0.008832215831
0.003836204369
-0.009704217043
0.001058003582
-0.01045072866
-0.002243480478
-0.010924122
-0.006030916678
-0.01089502994
-0.01014974706
-0.01006488903
-0.01422096305
-0.008157305892
-0.01746083714
-0.005167631667
-0.01849216388
-0.00185434893
-0.0153310782
-0.0067098597
-0.0003552702997
0.003409003534
-0.0009733338909
0.007679675771
-0.001646058715
0.0101279745
-0.002268712223
0.01128603142
-0.002816842347
0.01160580799
-0.003303696374
0.01137019223
-0.003759413124
0.01073087923
-0.004220928082
0.009745583045
-0.004726150447
0.008410834325
-0.005309766328
0.006688621948
-0.005996660272
0.004523098322
-0.006791801799
0.001853145113
-0.007660588877
-0.001374693397
-0.008503032284
-0.005188473265
-0.00911318055
-0.00953959879
-0.009142509802
-0.01419163379
-0.008128401679
-0.01847494525
-0.005711156962
-0.02090940859
-0.002318284825
-0.01872395034
-0.009028144523
-0.0005003773149
0.003909380849
-0.001151297363
0.008330595825
-0.001674822623
0.01065149976
-0.001981642635
0.01159285143
-0.002095675393
0.01171984075
-0.00207573911
0.01135025596
-0.001988481004
0.01064362114
-0.00190115538
0.009658257439
-0.001878931318
0.008388610282
-0.001985975312
0.006795665958
-0.002282471054
0.004819594076
-0.002818759647
0.002389433713
-0.003622155827
-0.0005712972093
-0.004668846129
-0.004141782955
-0.005834637702
-0.008373807207
-0.006807665854
-0.01321860563
-0.007016670249
-0.01826594085
-0.00571640172
-0.02220967711
-0.002739567248
-0.0217007848
-0.01176771177
-0.0008308856649
0.004740266516
-0.001604833784
0.009104543951
-0.001950981088
0.01099764707
-0.001839385319
0.01148125565
-0.001385438082
0.0112658935
-0.0007181355075
0.01068295338
4.820906202e-05
0.009877276575
0.0008164003621
0.008890066149
0.001495356282
0.007709654375
0.00199841993
0.006292602322
0.002238513531
0.004579500485
0.002128351198
0.002499596054
0.001583156662
-2.610266647e-05
0.0005450284887
-0.003103654774
-0.000984317225
-0.006844461485
-0.002828403915
-0.01137451893
-0.004459127547
-0.01663521721
-0.004810490374
-0.02185831428
-0.002944291169
-0.023566984
-0.01471200294
-0.001465682759
0.006205949278
-0.002379877443
0.01001873864
-0.002373446419
0.01099121604
-0.001603544218
0.01071135344
-0.0003496293798
0.01001197865
0.00116363903
0.009169684958
0.002771838144
0.008269077461
0.004349530074
0.007312374226
0.005791619695
0.006267564763
0.006998011097
0.005086210929
0.007865489777
0.00371202181
0.00828228216
0.002082803676
0.008123819518
0.0001323599805
0.007264494421
-0.00224432967
0.005585211083
-0.00516517814
0.003073871446
-0.008863179286
7.897087906e-05
-0.01364031664
-0.002445748092
-0.0193335953
-0.002601078276
-0.02341165382
-0.01731308121
-0.002365504093
0.008571453373
-0.002963809145
0.01061704371
-0.001922815016
0.009950221913
8.111375998e-05
0.008707424653
0.002534884994
0.007558207407
0.005140253101
0.006564316849
0.007719750614
0.005689579951
0.01015461838
0.00487750647
0.01234957035
0.004072612795
0.01421199929
0.003223781989
0.01564053747
0.002283483636
0.0165175866
0.001205754551
0.01669709762
-4.715103485e-05
0.01602712457
-0.001574356624
0.0143050887
-0.003443142264
0.01133282968
-0.005890920262
0.007055612843
-0.009363099787
0.002201623089
-0.01447960554
-0.001027320793
-0.02018270993
-0.018340402
-0.002150342821
0.0107217962
-7.199464017e-05
0.008538695559
0.003741898197
0.006136329083
0.007719772193
0.004729550665
0.0115618699
0.003716109702
0.015141009
0.002985177761
0.01839885426
0.002431734698
0.0213015534
0.001974807329
0.02381243151
0.001561734683
0.02587973272
0.001156480785
0.02743056708
0.0007326492701
0.02836472655
0.0002715950781
0.02857561618
-0.0002580406659
0.02788766428
-0.00088640472
0.02609934059
-0.001654818566
0.02290826517
-0.002699844836
0.01790696646
-0.004361801075
0.0107669079
-0.007339546971
0.002912180259
-0.01232798229
-0.01542822174
0.01072179622
0.01926049179
0.02539682087
0.03012637154
0.03384248125
0.03682765901
0.03925939371
0.04123420103
0.04279593572
0.0439524165
0.04468506577
0.04495666085
0.04469862018
0.04381221546
0.0421573969
0.03945755207
0.035095751
0.02775620403
0.01542822174
)
;

boundaryField
{
    movingWall
    {
        type            calculated;
        value           uniform 0;
    }
    fixedWalls
    {
        type            calculated;
        value           uniform 0;
    }
    frontAndBack
    {
        type            empty;
    }
}


// ************************************************************************* //
