/*--------------------------------*- C++ -*----------------------------------*\
  =========                 |
  \\      /  F ield         | OpenFOAM: The Open Source CFD Toolbox
   \\    /   O peration     | Website:  https://openfoam.org
    \\  /    A nd           | Version:  13
     \\/     M anipulation  |
\*---------------------------------------------------------------------------*/
FoamFile
{
    format      ascii;
    class       volVectorField;
    location    "35";
    object      U;
}
// * * * * * * * * * * * * * * * * * * * * * * * * * * * * * * * * * * * * * //

dimensions      [0 1 -1 0 0 0 0];

internalField   nonuniform List<vector> 
400
(
(0.0001805034404 -0.0001843323183 0)
(-0.000140724139 3.180889165e-05 0)
(-0.001531021652 0.0002688643942 0)
(-0.003772519431 0.0004193366257 0)
(-0.006519247984 0.0004987737332 0)
(-0.009471187406 0.0005288072412 0)
(-0.01237949891 0.0005192287462 0)
(-0.01501193281 0.0004690485995 0)
(-0.01712958205 0.0003716289767 0)
(-0.0184874432 0.0002216920227 0)
(-0.01886144149 2.249471317e-05 0)
(-0.01809739987 -0.00020866765 0)
(-0.01616995898 -0.0004380619021 0)
(-0.01323316665 -0.0006194399787 0)
(-0.009640767985 -0.0007044611162 0)
(-0.00591590407 -0.0006582781382 0)
(-0.002661590073 -0.0004745408131 0)
(-0.0004174516748 -0.0001834588021 0)
(0.0005316725683 0.0001344042984 0)
(0.0003070671499 0.0003001455373 0)
(-4.861789137e-05 0.0001395778294 0)
(-0.002068846225 0.001924554671 0)
(-0.006398576101 0.003741298605 0)
(-0.01251294167 0.004997164957 0)
(-0.01965869087 0.005657801164 0)
(-0.02716824914 0.005799242092 0)
(-0.03443990482 0.005472198789 0)
(-0.04089517144 0.004683402919 0)
(-0.04595808789 0.003423420964 0)
(-0.04907398685 0.001711575795 0)
(-0.04977269307 -0.0003603057958 0)
(-0.0477651959 -0.002599523918 0)
(-0.04305130704 -0.004711311459 0)
(-0.03600613313 -0.006335069232 0)
(-0.02740857444 -0.007119884432 0)
(-0.01837791089 -0.006828974216 0)
(-0.01019724699 -0.005445757969 0)
(-0.004031968791 -0.003249074748 0)
(-0.0005832898669 -0.0008661451709 0)
(0.0002185495964 0.0005807176643 0)
(-0.0003525488322 0.001710932868 0)
(-0.004457773929 0.006430871577 0)
(-0.01179575925 0.0106133254 0)
(-0.02146460775 0.01344127096 0)
(-0.03237531912 0.01486608066 0)
(-0.04362074011 0.01501470224 0)
(-0.05436721613 0.01397663361 0)
(-0.06380350242 0.01177476343 0)
(-0.07113243617 0.008422641589 0)
(-0.07560648403 0.004014108315 0)
(-0.0766091039 -0.001192822034 0)
(-0.07376942882 -0.00672583484 0)
(-0.06708722294 -0.01190391262 0)
(-0.05703751734 -0.01591525179 0)
(-0.04461710032 -0.01797409242 0)
(-0.03128932134 -0.01754111754 0)
(-0.01878685694 -0.01455802539 0)
(-0.008770039899 -0.009620909477 0)
(-0.002418202022 -0.004054425873 0)
(3.260587833e-05 1.253008266e-05 0)
(-0.0006278948501 0.004568831802 0)
(-0.006763591675 0.01359205431 0)
(-0.01698723297 0.02079551851 0)
(-0.02995187353 0.02547584731 0)
(-0.04423055811 0.02769724676 0)
(-0.05873637701 0.02767753098 0)
(-0.07249045568 0.0255561337 0)
(-0.08454109945 0.02137988966 0)
(-0.09395452394 0.01520047843 0)
(-0.09985284702 0.00721172038 0)
(-0.1014964801 -0.00212636536 0)
(-0.09840085568 -0.01201436055 0)
(-0.0904722221 -0.0213189311 0)
(-0.07814122563 -0.02868369598 0)
(-0.06245966298 -0.03276240634 0)
(-0.04510466343 -0.03256923645 0)
(-0.02821689905 -0.02788378349 0)
(-0.01403606317 -0.01957818921 0)
(-0.004421578876 -0.00972925863 0)
(-0.0001273712555 -0.001527152832 0)
(-0.0008651078611 0.008597894512 0)
(-0.008827339662 0.02318315283 0)
(-0.02167268139 0.0339617338 0)
(-0.03761691002 0.04066757738 0)
(-0.05491604788 0.04364979847 0)
(-0.07234812988 0.0432924877 0)
(-0.0888549206 0.03981170914 0)
(-0.1034163789 0.03328400932 0)
(-0.1150233754 0.02379544852 0)
(-0.1227005064 0.01162868005 0)
(-0.1255733875 -0.002571390502 0)
(-0.122976316 -0.01769240926 0)
(-0.1145990206 -0.03213954622 0)
(-0.1006652738 -0.04394933717 0)
(-0.08211562292 -0.05107314342 0)
(-0.06072792243 -0.05185814757 0)
(-0.03905757229 -0.0456752839 0)
(-0.02009203352 -0.03350281333 0)
(-0.006660677621 -0.01817000719 0)
(-0.0002734136138 -0.004095311656 0)
(-0.001060806396 0.01363978866 0)
(-0.01057052217 0.03490690897 0)
(-0.02566555467 0.04976531478 0)
(-0.04418364105 0.05865737041 0)
(-0.06411520851 0.06238942957 0)
(-0.08415079844 0.06160286121 0)
(-0.1032103567 0.05662721665 0)
(-0.1202669412 0.04757097934 0)
(-0.1342876556 0.03453065617 0)
(-0.1442255719 0.01782993434 0)
(-0.1490570906 -0.001767899307 0)
(-0.1478692598 -0.02290590597 0)
(-0.1400123909 -0.04356845507 0)
(-0.1253292581 -0.06114791148 0)
(-0.1044485916 -0.07273023277 0)
(-0.07907773837 -0.07568517183 0)
(-0.05213596989 -0.06857047194 0)
(-0.02752263719 -0.05213395178 0)
(-0.009417032899 -0.02990263228 0)
(-0.0004482521937 -0.00784169258 0)
(-0.001207724359 0.0195057485 0)
(-0.01192083605 0.0483867078 0)
(-0.02879242709 0.06776634638 0)
(-0.04936724081 0.07901083163 0)
(-0.07143920754 0.08353698952 0)
(-0.09366171794 0.08233593933 0)
(-0.1149868522 0.07589239259 0)
(-0.1344393262 0.06434653782 0)
(-0.1510173564 0.04776660472 0)
(-0.1636420216 0.02644111751 0)
(-0.1711513027 0.001143567005 0)
(-0.1723552088 -0.02664758137 0)
(-0.1661755503 -0.05459429744 0)
(-0.151908651 -0.07946250788 0)
(-0.1296309968 -0.09733127313 0)
(-0.1007016126 -0.1042242566 0)
(-0.06819970531 -0.09730350112 0)
(-0.03699140616 -0.07648858358 0)
(-0.01305201452 -0.04577749225 0)
(-0.0007031807482 -0.01309515901 0)
(-0.001297380008 0.02596939181 0)
(-0.01280789265 0.06316001886 0)
(-0.03088345052 0.08740948049 0)
(-0.0528677631 0.101161294 0)
(-0.07643092927 0.1065692998 0)
(-0.1002368794 0.1050627533 0)
(-0.1233201353 0.09732759105 0)
(-0.1448163245 0.08353854879 0)
(-0.1638208754 0.06369326301 0)
(-0.1792906803 0.03795547543 0)
(-0.1899863878 0.006973580376 0)
(-0.1944753354 -0.02782197558 0)
(-0.1912315537 -0.06394191445 0)
(-0.1788916549 -0.09764135694 0)
(-0.1567290677 -0.1239469442 0)
(-0.125363688 -0.1371926704 0)
(-0.08760220203 -0.1324113498 0)
(-0.04907749658 -0.1077224945 0)
(-0.01796133904 -0.06696679466 0)
(-0.001101230804 -0.0203888153 0)
(-0.001325083566 0.03277018896 0)
(-0.01318515437 0.07868638652 0)
(-0.03180837634 0.1080226521 0)
(-0.05442086499 0.1243835458 0)
(-0.07863369418 0.1307582786 0)
(-0.10316182 0.1290986542 0)
(-0.1271675588 0.120345702 0)
(-0.1499574805 0.1047235501 0)
(-0.1708032572 0.08212882273 0)
(-0.1887978211 0.05251846009 0)
(-0.2027427923 0.01627643915 0)
(-0.2110837607 -0.02541270451 0)
(-0.2119347197 -0.07015559839 0)
(-0.2032626433 -0.1139472881 0)
(-0.1833453597 -0.1509007056 0)
(-0.1516167079 -0.1734788282 0)
(-0.1099349456 -0.1738221649 0)
(-0.06408634378 -0.1468512335 0)
(-0.02454575277 -0.09488681481 0)
(-0.001725339744 -0.03047355206 0)
(-0.001297293935 0.03963543919 0)
(-0.01306829394 0.09437942307 0)
(-0.03154390237 0.1288365769 0)
(-0.05389293857 0.1477880279 0)
(-0.0777174723 0.1551346813 0)
(-0.1018177084 0.1534349941 0)
(-0.1255253883 0.1439506915 0)
(-0.148377012 0.1269905331 0)
(-0.1699064669 0.1023471551 0)
(-0.1894661059 0.06971983027 0)
(-0.2060652703 0.02911407152 0)
(-0.2182306271 -0.01873042831 0)
(-0.2239274616 -0.07181483153 0)
(-0.2205990402 -0.1262693007 0)
(-0.2054876185 -0.1756864284 0)
(-0.1764643858 -0.210806442 0)
(-0.1336149241 -0.2203293176 0)
(-0.08177254962 -0.1942774389 0)
(-0.03315588208 -0.1310091077 0)
(-0.002689237962 -0.04432612289 0)
(-0.00124151242 0.04632805247 0)
(-0.01258679074 0.1096750575 0)
(-0.03026267438 0.1490371606 0)
(-0.05140466862 0.1703474004 0)
(-0.07364128446 0.1784915087 0)
(-0.09589691612 0.176724133 0)
(-0.1177186657 0.1667051355 0)
(-0.1389303769 0.14888549 0)
(-0.1594096374 0.1229867446 0)
(-0.1788916037 0.08844858289 0)
(-0.1967769379 0.04483977016 0)
(-0.211923239 -0.007698134125 0)
(-0.2224635812 -0.0678824694 0)
(-0.2256407185 -0.1324536601 0)
(-0.2178643152 -0.1951492748 0)
(-0.1953106011 -0.2456055125 0)
(-0.1555431784 -0.2690843419 0)
(-0.100962316 -0.249127403 0)
(-0.0439649377 -0.1764968993 0)
(-0.004147528128 -0.06313897581 0)
(-0.001219803839 0.05272819068 0)
(-0.01204858899 0.1241438251 0)
(-0.02843350695 0.1678548097 0)
(-0.04745790639 0.1909583654 0)
(-0.06681019124 0.1994332876 0)
(-0.08560800596 0.1973310518 0)
(-0.1036818379 0.1867900553 0)
(-0.1212024746 0.1684725072 0)
(-0.1384556703 0.1420911003 0)
(-0.1556511781 0.106875037 0)
(-0.1727288008 0.06196930324 0)
(-0.1891339436 0.006846649552 0)
(-0.2035042784 -0.05814093257 0)
(-0.2133356206 -0.1308545309 0)
(-0.2147156427 -0.206019656 0)
(-0.2023973988 -0.2732883262 0)
(-0.1710531046 -0.3153552449 0)
(-0.1191652962 -0.3085137225 0)
(-0.05672155882 -0.2315927644 0)
(-0.006298214645 -0.08826063503 0)
(-0.001350451795 0.05896175072 0)
(-0.01202428338 0.1376487255 0)
(-0.0269226221 0.1846783445 0)
(-0.04303066311 0.2085207007 0)
(-0.0581639649 0.2164535253 0)
(-0.07177618774 0.2134367902 0)
(-0.08409804908 0.2021472344 0)
(-0.09571768199 0.1835111318 0)
(-0.1073693295 0.1572989633 0)
(-0.1197754025 0.1226122152 0)
(-0.1334854211 0.07825642707 0)
(-0.1486642201 0.02308307129 0)
(-0.1647646263 -0.04354665169 0)
(-0.1800585747 -0.1209792075 0)
(-0.1910205833 -0.205758805 0)
(-0.1917513543 -0.2890375664 0)
(-0.17433597 -0.3528279241 0)
(-0.1323769216 -0.3670021216 0)
(-0.07036300771 -0.2947242403 0)
(-0.009363690271 -0.1210131082 0)
(-0.001848619394 0.06559866827 0)
(-0.01346603596 0.1505407817 0)
(-0.02707856139 0.1991554867 0)
(-0.03957968228 0.2219849606 0)
(-0.04909618904 0.2279901638 0)
(-0.05569841826 0.22314045 0)
(-0.06021030324 0.2106447822 0)
(-0.06372519043 0.1916866327 0)
(-0.06743936476 0.1661260262 0)
(-0.0725603536 0.1330177231 0)
(-0.08021326355 0.09095764773 0)
(-0.09129578171 0.03833790901 0)
(-0.1062150478 -0.0263568926 0)
(-0.1244167686 -0.1039909419 0)
(-0.1435649846 -0.1934824911 0)
(-0.1582986192 -0.2889948322 0)
(-0.1592587902 -0.3745895694 0)
(-0.1352284255 -0.4166637866 0)
(-0.08253289529 -0.361458687 0)
(-0.01349945762 -0.162227142 0)
(-0.00308628742 0.07394571454 0)
(-0.01785527687 0.1638591695 0)
(-0.03071453372 0.2111949295 0)
(-0.03877197177 0.2302748253 0)
(-0.04095370926 0.2323688604 0)
(-0.03845399871 0.2244659873 0)
(-0.03297094222 0.2101595035 0)
(-0.02620121195 0.1907712491 0)
(-0.01978910907 0.166207668 0)
(-0.01534587873 0.1355163933 0)
(-0.01445446667 0.09721117043 0)
(-0.01862711201 0.04944899068 0)
(-0.02916869596 -0.009843447439 0)
(-0.04684447577 -0.08273462993 0)
(-0.07111363388 -0.1705233707 0)
(-0.09848963689 -0.2714262815 0)
(-0.1200982641 -0.3745876089 0)
(-0.1213292552 -0.4479778816 0)
(-0.08907427586 -0.4238394926 0)
(-0.01848499657 -0.2114367786 0)
(-0.005580091485 0.08654258911 0)
(-0.02718951912 0.1794235674 0)
(-0.03955214873 0.2206049887 0)
(-0.04125595371 0.2318258178 0)
(-0.03327131756 0.2274221157 0)
(-0.01876807369 0.2150976351 0)
(-0.0006468171166 0.1984217755 0)
(0.01873359969 0.1785743496 0)
(0.03734665267 0.1553670295 0)
(0.05330876678 0.127819691 0)
(0.06475037381 0.09445729219 0)
(0.06974413432 0.0534269952 0)
(0.06629922131 0.002499592865 0)
(0.05248753272 -0.06099840489 0)
(0.02691049775 -0.1401086057 0)
(-0.009807730409 -0.237173362 0)
(-0.05159741084 -0.3488748774 0)
(-0.08337307235 -0.4512890029 0)
(-0.0835400479 -0.4708413452 0)
(-0.02311763661 -0.2665141786 0)
(-0.009894000903 0.1087311843 0)
(-0.04302025832 0.1995396075 0)
(-0.05231038986 0.2256307484 0)
(-0.04193441559 0.2231148667 0)
(-0.01807402795 0.2093714048 0)
(0.01301374006 0.191620316 0)
(0.0471609535 0.1725493891 0)
(0.08154038742 0.1527150091 0)
(0.1139885825 0.1315984151 0)
(0.1426012256 0.1081252362 0)
(0.1654708862 0.08089387872 0)
(0.1805147256 0.04822913169 0)
(0.1853550182 0.00811415054 0)
(0.1772799771 -0.04205944357 0)
(0.153336642 -0.1059743329 0)
(0.1111494021 -0.188917715 0)
(0.05203307139 -0.2958467493 0)
(-0.01272285542 -0.4176088864 0)
(-0.05686043176 -0.4888068198 0)
(-0.02466776396 -0.3239062591 0)
(-0.01780098525 0.1517125917 0)
(-0.06130424516 0.2236476394 0)
(-0.05230886955 0.217634748 0)
(-0.01445085009 0.1948713547 0)
(0.03526543898 0.1709678213 0)
(0.08840299804 0.1489770593 0)
(0.1409860355 0.1292936487 0)
(0.1907347698 0.1113208119 0)
(0.236056871 0.09401342687 0)
(0.2755515886 0.07618388048 0)
(0.3076851791 0.05658976857 0)
(0.3305851241 0.0338978525 0)
(0.3418677922 0.006583465939 0)
(0.33853006 -0.02734185916 0)
(0.3167566917 -0.07103772212 0)
(0.2719535051 -0.130435162 0)
(0.1999190513 -0.216430656 0)
(0.1028365301 -0.3383156976 0)
(0.004267832638 -0.4567458877 0)
(-0.01598152381 -0.369264896 0)
(-0.02420690031 0.2083029499 0)
(-0.03788815441 0.2303949105 0)
(0.03729284763 0.1765432149 0)
(0.1250481983 0.1368334237 0)
(0.2057741518 0.1090165685 0)
(0.2778971383 0.0881616681 0)
(0.34209207 0.07206855436 0)
(0.3986552113 0.05914585916 0)
(0.4476421265 0.04800854892 0)
(0.4888222106 0.03752288997 0)
(0.5215321479 0.02673894556 0)
(0.5445325028 0.0148039173 0)
(0.5559328757 0.0008405513026 0)
(0.5530721522 -0.01622521308 0)
(0.5321264053 -0.03823092595 0)
(0.4876200825 -0.06911309428 0)
(0.4110632747 -0.1190868878 0)
(0.2908293739 -0.2093532486 0)
(0.1330968403 -0.3382911238 0)
(0.03875163598 -0.3403529862 0)
(0.2418953429 0.1091439249 0)
(0.3134882435 0.09713302132 0)
(0.4443678758 0.05697428646 0)
(0.5496708314 0.03510482532 0)
(0.6240759894 0.02372813126 0)
(0.6795810153 0.01669565214 0)
(0.723417367 0.01196776424 0)
(0.7586910023 0.008687015095 0)
(0.7869580653 0.006255236977 0)
(0.8090195614 0.004238644946 0)
(0.8250539661 0.002340940728 0)
(0.8346874692 0.0003546307728 0)
(0.8370527219 -0.001897187784 0)
(0.8307240065 -0.004581266047 0)
(0.8133914504 -0.008023489757 0)
(0.7811551849 -0.01288790288 0)
(0.7257170684 -0.02124005199 0)
(0.6298793887 -0.03810350106 0)
(0.4592708392 -0.08556084196 0)
(0.3048916127 -0.1256992368 0)
)
;

boundaryField
{
    movingWall
    {
        type            fixedValue;
        value           uniform (1 0 0);
    }
    fixedWalls
    {
        type            fixedValue;
        value           uniform (0 0 0);
    }
    frontAndBack
    {
        type            empty;
    }
}


// ************************************************************************* //
