/*--------------------------------*- C++ -*----------------------------------*\
  =========                 |
  \\      /  F ield         | OpenFOAM: The Open Source CFD Toolbox
   \\    /   O peration     | Website:  https://openfoam.org
    \\  /    A nd           | Version:  13
     \\/     M anipulation  |
\*---------------------------------------------------------------------------*/
FoamFile
{
    format      ascii;
    class       volVectorField;
    location    "35";
    object      U_0;
}
// * * * * * * * * * * * * * * * * * * * * * * * * * * * * * * * * * * * * * //

dimensions      [0 1 -1 0 0 0 0];

internalField   nonuniform List<vector> 
400
(
(0.0001799189163 -0.000183729419 0)
(-0.0001414672204 3.22551245e-05 0)
(-0.001530305405 0.000268989143 0)
(-0.00376897152 0.0004193001697 0)
(-0.00651205333 0.0004986259403 0)
(-0.009459898726 0.0005285504113 0)
(-0.01236400015 0.0005188685011 0)
(-0.01499249294 0.0004686195449 0)
(-0.01710694437 0.0003712014454 0)
(-0.01846287472 0.0002213608644 0)
(-0.01883667784 2.236406587e-05 0)
(-0.01807444037 -0.0002085230092 0)
(-0.01615072988 -0.00043763905 0)
(-0.01321910957 -0.0006188275962 0)
(-0.009632463374 -0.0007038331885 0)
(-0.005912862028 -0.0006578481258 0)
(-0.002662312747 -0.0004744722589 0)
(-0.0004198180893 -0.0001838045907 0)
(0.0005295945014 0.0001337240893 0)
(0.0003064200879 0.0002995039805 0)
(-4.897195062e-05 0.0001402976081 0)
(-0.002066301146 0.00192260082 0)
(-0.006390022224 0.00373665453 0)
(-0.01249549822 0.004990553309 0)
(-0.01963084335 0.005650033653 0)
(-0.02712940842 0.005791012894 0)
(-0.03439040359 0.005464238782 0)
(-0.04083634875 0.004676543227 0)
(-0.04589236287 0.003418602066 0)
(-0.04900479529 0.001709701249 0)
(-0.04970422754 -0.0003586022867 0)
(-0.04770189743 -0.00259411847 0)
(-0.04299722682 -0.004702756604 0)
(-0.03596421933 -0.006324630552 0)
(-0.02738005465 -0.007109347861 0)
(-0.01836196646 -0.006820230508 0)
(-0.01019114866 -0.005440263427 0)
(-0.004031774508 -0.003247351982 0)
(-0.0005849729303 -0.0008673484621 0)
(0.0002177899669 0.0005785859504 0)
(-0.0003523703703 0.001709482455 0)
(-0.004450798762 0.006422365483 0)
(-0.01177758469 0.01059857963 0)
(-0.02143142799 0.01342222677 0)
(-0.0323255465 0.01484477103 0)
(-0.04355412493 0.01499299591 0)
(-0.05428483391 0.01395645218 0)
(-0.06370786239 0.01175819058 0)
(-0.07102747109 0.008411817029 0)
(-0.07549733697 0.004010893775 0)
(-0.07650172714 -0.001187299289 0)
(-0.07366989969 -0.006711619013 0)
(-0.06700098413 -0.01188247559 0)
(-0.05696859531 -0.01588947351 0)
(-0.04456740435 -0.01794787317 0)
(-0.03125820782 -0.01751858825 0)
(-0.01877120544 -0.01454246456 0)
(-0.008764962728 -0.009613688705 0)
(-0.002418134155 -0.004054169336 0)
(3.196614958e-05 9.532072697e-06 0)
(-0.0006272055354 0.004562526237 0)
(-0.006752002772 0.01357193032 0)
(-0.01695936807 0.02076449698 0)
(-0.02990340047 0.02543791164 0)
(-0.0441602073 0.02765618261 0)
(-0.05864451684 0.02763681496 0)
(-0.07237901602 0.02551926645 0)
(-0.08441364704 0.02135051663 0)
(-0.09381614449 0.0151821399 0)
(-0.0997098045 0.007207289482 0)
(-0.1013557615 -0.002115342565 0)
(-0.09826949098 -0.01198825234 0)
(-0.09035657924 -0.02128032346 0)
(-0.07804626506 -0.02863733663 0)
(-0.06238820757 -0.03271464742 0)
(-0.04505682084 -0.03252691421 0)
(-0.02818991039 -0.02785259875 0)
(-0.01402475154 -0.01956099116 0)
(-0.004419106457 -0.00972461596 0)
(-0.0001279112829 -0.001529937029 0)
(-0.000863971611 0.008584280835 0)
(-0.008811868426 0.02314702866 0)
(-0.02163680335 0.03390942368 0)
(-0.03755606216 0.04060589264 0)
(-0.05482943448 0.04358466787 0)
(-0.07223677144 0.04322921469 0)
(-0.08872147066 0.03975549314 0)
(-0.1032651163 0.03324007051 0)
(-0.1148599891 0.0237686488 0)
(-0.1225317256 0.01162279166 0)
(-0.1254065739 -0.002554482776 0)
(-0.1228188743 -0.01765338256 0)
(-0.1144578719 -0.03208195637 0)
(-0.1005462657 -0.04387960463 0)
(-0.08202278246 -0.05099997505 0)
(-0.06066268125 -0.05179125724 0)
(-0.03901823817 -0.0456233383 0)
(-0.02007372748 -0.03347097071 0)
(-0.006655481117 -0.01815766577 0)
(-0.0002738741034 -0.004096558316 0)
(-0.001059364813 0.01361700126 0)
(-0.0105525821 0.03485155917 0)
(-0.02562472189 0.04968814159 0)
(-0.04411536414 0.05856863506 0)
(-0.06401914194 0.06229746871 0)
(-0.08402846207 0.06151487629 0)
(-0.103064832 0.0565500498 0)
(-0.1201027839 0.04751128188 0)
(-0.1341105828 0.03449441634 0)
(-0.1440421107 0.01782166263 0)
(-0.1488743142 -0.001746007845 0)
(-0.1476943656 -0.0228546187 0)
(-0.139852391 -0.04349195199 0)
(-0.1251906417 -0.06105381039 0)
(-0.1043366702 -0.07262919606 0)
(-0.0789957082 -0.07558973985 0)
(-0.05208393751 -0.06849278459 0)
(-0.02749679608 -0.05208252243 0)
(-0.009408816724 -0.02987892798 0)
(-0.0004486131195 -0.007839946036 0)
(-0.001206194788 0.01947287068 0)
(-0.01190240198 0.04831064924 0)
(-0.02875076319 0.06766278725 0)
(-0.04929801824 0.0788938031 0)
(-0.07134240219 0.08341734091 0)
(-0.09353912692 0.08222273213 0)
(-0.1148416635 0.07579393291 0)
(-0.1342759493 0.0642706524 0)
(-0.1508410364 0.04772014256 0)
(-0.1634585184 0.02642914356 0)
(-0.1709667051 0.001168577581 0)
(-0.1721758304 -0.02658627018 0)
(-0.1660078549 -0.05450101055 0)
(-0.1517591267 -0.0793453656 0)
(-0.1295058551 -0.09720215162 0)
(-0.1006058829 -0.1040980553 0)
(-0.06813594061 -0.09719604038 0)
(-0.03695792188 -0.07641282581 0)
(-0.01304049781 -0.04573858086 0)
(-0.0007033821051 -0.01308880607 0)
(-0.001296028413 0.02592672651 0)
(-0.01279125335 0.0630639467 0)
(-0.03084569686 0.08728053679 0)
(-0.05280498478 0.1010172331 0)
(-0.07634326316 0.1064234269 0)
(-0.1001261756 0.1049258638 0)
(-0.1231894346 0.09720921383 0)
(-0.1446695836 0.08344735994 0)
(-0.1636624992 0.06363663255 0)
(-0.1791252326 0.0379387577 0)
(-0.1898184682 0.006999445621 0)
(-0.1943096037 -0.02775406874 0)
(-0.1910729271 -0.06383601527 0)
(-0.1787455788 -0.09750532188 0)
(-0.1566016825 -0.1237927951 0)
(-0.1252612923 -0.1370365859 0)
(-0.0875300569 -0.1322723429 0)
(-0.04903722478 -0.1076187418 0)
(-0.0179464036 -0.06690899726 0)
(-0.001101158502 -0.02037607577 0)
(-0.001324177932 0.03271936662 0)
(-0.01317263019 0.07857334302 0)
(-0.03177933274 0.1078720139 0)
(-0.05437202836 0.1242163821 0)
(-0.07856522623 0.1305901728 0)
(-0.1030754401 0.1289419551 0)
(-0.1270659952 0.1202109001 0)
(-0.1498440737 0.1046198195 0)
(-0.170681391 0.08206365189 0)
(-0.1886706239 0.05249709759 0)
(-0.2026129787 0.01630139157 0)
(-0.2109536659 -0.02534195577 0)
(-0.2118067111 -0.07004271603 0)
(-0.2031398297 -0.1137992378 0)
(-0.1832323152 -0.1507284406 0)
(-0.1515196572 -0.1732981146 0)
(-0.1098613135 -0.1736537008 0)
(-0.06404186547 -0.1467182109 0)
(-0.02452772002 -0.09480728282 0)
(-0.001724817036 -0.03045257895 0)
(-0.001297046695 0.03957934129 0)
(-0.0130619009 0.09425468695 0)
(-0.03152780338 0.128670541 0)
(-0.0538647237 0.1476043075 0)
(-0.07767721083 0.1549508298 0)
(-0.1017668296 0.1532647184 0)
(-0.1254661784 0.1438052057 0)
(-0.1483121009 0.1268791779 0)
(-0.1698381673 0.1022771204 0)
(-0.1893960457 0.06969577273 0)
(-0.2059941536 0.0291378141 0)
(-0.2181582084 -0.01865993884 0)
(-0.2238528976 -0.07170100935 0)
(-0.2205219318 -0.1261180245 0)
(-0.2054093443 -0.1755065522 0)
(-0.1763891879 -0.2106113521 0)
(-0.1335507808 -0.2201388678 0)
(-0.08172895951 -0.194118011 0)
(-0.03313590671 -0.1309069552 0)
(-0.002688061344 -0.04429528819 0)
(-0.001242035897 0.0462705356 0)
(-0.0125879072 0.1095457273 0)
(-0.03026254729 0.1488641958 0)
(-0.05140195115 0.1701558682 0)
(-0.07363583044 0.1783004718 0)
(-0.0958896621 0.1765484288 0)
(-0.1177112551 0.1665565027 0)
(-0.1389245769 0.1487731683 0)
(-0.15940666 0.1229172745 0)
(-0.1788916539 0.08842553746 0)
(-0.1967789367 0.04486364479 0)
(-0.2119244944 -0.007629403155 0)
(-0.2224601104 -0.06777282502 0)
(-0.2256283857 -0.1323081718 0)
(-0.217840177 -0.1949743014 0)
(-0.1952750688 -0.2454104367 0)
(-0.1555023635 -0.2688851895 0)
(-0.1009274327 -0.2489501456 0)
(-0.04394540944 -0.1763746749 0)
(-0.004145533516 -0.06309739165 0)
(-0.001221085475 0.05267363922 0)
(-0.01205771142 0.1240181353 0)
(-0.02845064539 0.1676847987 0)
(-0.0474829125 0.1907691689 0)
(-0.06684256227 0.1992448459 0)
(-0.08564788983 0.19715902 0)
(-0.10372987 0.1866465072 0)
(-0.1212592284 0.1683664116 0)
(-0.1385210854 0.1420281651 0)
(-0.155724157 0.1068575073 0)
(-0.1728067004 0.06199599169 0)
(-0.1892124552 0.006913789225 0)
(-0.203577378 -0.05803851761 0)
(-0.2133961552 -0.1307219505 0)
(-0.2147567327 -0.2058612339 0)
(-0.2024147411 -0.2731088921 0)
(-0.171048571 -0.3151646194 0)
(-0.1191484216 -0.3083330123 0)
(-0.05670626787 -0.2314577217 0)
(-0.006295333297 -0.08820889035 0)
(-0.001352360288 0.05891453174 0)
(-0.01204090286 0.1375351257 0)
(-0.02695626559 0.1845215383 0)
(-0.0430824365 0.2083443009 0)
(-0.05823288001 0.2162775107 0)
(-0.07186124325 0.213277174 0)
(-0.08419835083 0.2020161754 0)
(-0.09583207623 0.1834172389 0)
(-0.1074960771 0.1572471392 0)
(-0.1199119598 0.1226034787 0)
(-0.1336281564 0.07828806236 0)
(-0.1488080987 0.02314943419 0)
(-0.1649031395 -0.04345239302 0)
(-0.180183735 -0.1208632163 0)
(-0.191123436 -0.2056246786 0)
(-0.1918237374 -0.2888865319 0)
(-0.1743743078 -0.3526628207 0)
(-0.1323856906 -0.3668355096 0)
(-0.07035655518 -0.2945882501 0)
(-0.009360068518 -0.1209538264 0)
(-0.001850925534 0.06556257497 0)
(-0.01348859759 0.1504469055 0)
(-0.02712575201 0.1990213258 0)
(-0.03965385125 0.2218309652 0)
(-0.0491958385 0.2278352537 0)
(-0.0558211191 0.2230003227 0)
(-0.06035314711 0.2105313422 0)
(-0.06388477058 0.1916080747 0)
(-0.06761183048 0.1660866889 0)
(-0.07274151451 0.1330178981 0)
(-0.08039863952 0.09099371559 0)
(-0.09148051052 0.03840314528 0)
(-0.1063936359 -0.02627084564 0)
(-0.1245826149 -0.1038917107 0)
(-0.143709979 -0.1933745287 0)
(-0.1584133272 -0.2888780094 0)
(-0.1593352152 -0.3744612903 0)
(-0.1352645346 -0.4165269777 0)
(-0.08253910152 -0.3613361927 0)
(-0.01349581297 -0.1621651061 0)
(-0.00308864933 0.07392340075 0)
(-0.01788106907 0.1637907501 0)
(-0.03076990319 0.2110908259 0)
(-0.03886048425 0.2301508661 0)
(-0.04107357964 0.2322416366 0)
(-0.03860143406 0.2243499784 0)
(-0.03314093007 0.2100659453 0)
(-0.026387976 0.1907079022 0)
(-0.01998659319 0.1661786361 0)
(-0.01554821666 0.1355219702 0)
(-0.01465639406 0.09724790072 0)
(-0.01882412512 0.04951019552 0)
(-0.02935688827 -0.009766530551 0)
(-0.04701995757 -0.0826507882 0)
(-0.07127137032 -0.1704387573 0)
(-0.09862212781 -0.2713418404 0)
(-0.1201963736 -0.3744988777 0)
(-0.1213861255 -0.4478806466 0)
(-0.08909399288 -0.4237443848 0)
(-0.01848301442 -0.2113791382 0)
(-0.005581951818 0.08653482142 0)
(-0.02721432594 0.1793831817 0)
(-0.03960737985 0.2205349629 0)
(-0.0413463931 0.2317363401 0)
(-0.03339552432 0.2273262895 0)
(-0.01892161162 0.2150077522 0)
(-0.0008233081216 0.1983479298 0)
(0.01854157278 0.1785238675 0)
(0.03714673043 0.1553441319 0)
(0.0531080848 0.1278253282 0)
(0.06455492099 0.09448906055 0)
(0.06955839272 0.05347935277 0)
(0.06612610132 0.002564619531 0)
(0.05232868159 -0.0609294896 0)
(0.0267675253 -0.1400432815 0)
(-0.00993139367 -0.2371149548 0)
(-0.05169552682 -0.3488207725 0)
(-0.08343772764 -0.4512320876 0)
(-0.08356901278 -0.4707808854 0)
(-0.02311880359 -0.2664689264 0)
(-0.009894386119 0.1087354736 0)
(-0.04303815679 0.1995247826 0)
(-0.05235399617 0.2255934833 0)
(-0.04200973774 0.2230594561 0)
(-0.01818117533 0.2093068059 0)
(0.01287820018 0.1915560708 0)
(0.04700301573 0.1724939943 0)
(0.08136748125 0.1526751593 0)
(0.1138086703 0.1315784499 0)
(0.1424219068 0.1081269812 0)
(0.1652986898 0.08091631909 0)
(0.1803546618 0.04826832146 0)
(0.1852102699 0.008163785763 0)
(0.1771518051 -0.04200699665 0)
(0.1532248059 -0.1059264112 0)
(0.1110533521 -0.1888789748 0)
(0.0519538647 -0.2958172969 0)
(-0.01277980198 -0.4175821255 0)
(-0.05689018156 -0.4887763349 0)
(-0.02467117366 -0.3238780309 0)
(-0.01779874466 0.1517221889 0)
(-0.06130945574 0.2236498835 0)
(-0.0523294344 0.2176222594 0)
(-0.014493941 0.1948442524 0)
(0.03519684698 0.1709309629 0)
(0.08830928676 0.1489370021 0)
(0.140870635 0.1292568192 0)
(0.1906032954 0.1112925902 0)
(0.2359163147 0.09399753801 0)
(0.2754091141 0.0761823981 0)
(0.3075475657 0.05660265238 0)
(0.3304582522 0.03392259691 0)
(0.3417559539 0.006615648268 0)
(0.3384359111 -0.0273079628 0)
(0.3166805283 -0.07100775664 0)
(0.2718929794 -0.1304131446 0)
(0.1998705211 -0.2164178155 0)
(0.102800375 -0.3383075448 0)
(0.004245929093 -0.4567374329 0)
(-0.01598643563 -0.3692520999 0)
(-0.02420324339 0.2083111336 0)
(-0.03788234214 0.2304031871 0)
(0.03729558862 0.1765439265 0)
(0.1250410057 0.1368246807 0)
(0.2057508913 0.1090006891 0)
(0.2778547186 0.08814237974 0)
(0.3420302868 0.07204974375 0)
(0.3985767741 0.05913087595 0)
(0.4475522236 0.04799980691 0)
(0.4887262612 0.03752234008 0)
(0.521438245 0.02674629254 0)
(0.5444475125 0.01481748546 0)
(0.5558612585 0.0008576279534 0)
(0.5530165129 -0.01620795218 0)
(0.5320864511 -0.03821650407 0)
(0.4875931905 -0.06910365897 0)
(0.4110461368 -0.1190835299 0)
(0.2908165884 -0.2093535277 0)
(0.133089205 -0.338291704 0)
(0.03874592803 -0.3403502698 0)
(0.2418974465 0.1091464337 0)
(0.3134957331 0.09713664525 0)
(0.4443786072 0.05697593293 0)
(0.5496794172 0.03510438196 0)
(0.6240768714 0.02372617902 0)
(0.6795707429 0.01669305741 0)
(0.7233954913 0.01196552014 0)
(0.7586595218 0.008685856902 0)
(0.786920558 0.006255597395 0)
(0.8089804933 0.004240448705 0)
(0.8250179983 0.002343649516 0)
(0.8346582712 0.0003576906282 0)
(0.8370324988 -0.001894424713 0)
(0.8307138292 -0.004579098334 0)
(0.8133898382 -0.008022303839 0)
(0.7811593938 -0.01288854129 0)
(0.7257225831 -0.02124247729 0)
(0.6298830751 -0.03810612134 0)
(0.4592714323 -0.08556384529 0)
(0.3048910375 -0.1256996837 0)
)
;

boundaryField
{
    movingWall
    {
        type            calculated;
        value           uniform (1 0 0);
    }
    fixedWalls
    {
        type            calculated;
        value           uniform (0 0 0);
    }
    frontAndBack
    {
        type            empty;
    }
}


// ************************************************************************* //
