/*--------------------------------*- C++ -*----------------------------------*\
  =========                 |
  \\      /  F ield         | OpenFOAM: The Open Source CFD Toolbox
   \\    /   O peration     | Website:  https://openfoam.org
    \\  /    A nd           | Version:  13
     \\/     M anipulation  |
\*---------------------------------------------------------------------------*/
FoamFile
{
    format      ascii;
    class       vectorField;
    location    "35";
    object      U_all;
}
// * * * * * * * * * * * * * * * * * * * * * * * * * * * * * * * * * * * * * //


400
(
(1.099047485e-05 -3.784254117e-05 0)
(-0.0006661115866 0.0004130405508 -1.550284808e-23)
(-0.002185378494 0.0009203930972 0)
(-0.004047833166 0.001312780339 0)
(-0.005971866094 0.001535065084 6.844170704e-25)
(-0.00776277922 0.001569846747 4.151262659e-24)
(-0.009284540059 0.001423562204 -7.369222414e-24)
(-0.0104359358 0.001119722147 7.535047306e-24)
(-0.01113680884 0.000696082286 -2.095725964e-25)
(-0.01132710625 0.0002030782897 -3.995165435e-24)
(-0.0109717677 -0.0003002323876 5.804176906e-24)
(-0.01007232337 -0.0007475153189 -5.930029932e-23)
(-0.00867987633 -0.00107556212 -6.553153429e-23)
(-0.00690285062 -0.001233044263 -7.7847626e-23)
(-0.004910737438 -0.00119263866 4.573860749e-24)
(-0.002927232829 -0.0009619207073 -4.138210717e-24)
(-0.001205300969 -0.0005912120921 -1.998940284e-22)
(-1.90702026e-05 -0.0001698834653 0)
(0.0005181529519 0.0001720850919 1.510334423e-25)
(0.0002227510627 0.0003059787962 -2.562273225e-24)
(-0.000263370244 0.0008289544769 1.383789713e-25)
(-0.002703311916 0.003383833257 1.560064096e-23)
(-0.006907277438 0.005604493605 1.553770565e-25)
(-0.01195231551 0.007008200717 -8.492623677e-25)
(-0.01713503578 0.007553770151 1.161724055e-24)
(-0.02197534184 0.007294194758 1.30643595e-23)
(-0.02611074484 0.0063218902 1.392920193e-24)
(-0.02926562878 0.004754190266 -7.286651509e-24)
(-0.03122671055 0.002737150546 1.015487218e-23)
(-0.03184199095 0.0004524065703 4.510591132e-24)
(-0.03102759743 -0.001884141947 -6.319496396e-24)
(-0.02879315186 -0.004023025421 2.961711154e-24)
(-0.02527137225 -0.005708350003 3.89577977e-23)
(-0.02073194083 -0.006707405487 -1.954915101e-24)
(-0.0155896219 -0.006854137273 3.75477594e-24)
(-0.01038513275 -0.006097463077 -9.741995365e-23)
(-0.00573027316 -0.004546187018 9.638650343e-23)
(-0.0022333687 -0.002507420705 -3.962780367e-25)
(-0.000181776373 -0.0005023741665 4.06272241e-25)
(8.343525959e-05 0.0006099247453 0)
(-0.0004188250291 0.002935072782 -2.911216085e-25)
(-0.004647876497 0.008804004134 1.703116445e-23)
(-0.0113719566 0.01324041013 -8.273581961e-24)
(-0.01932728067 0.01579202648 -2.073933942e-25)
(-0.02747410006 0.01652998675 2.037423565e-25)
(-0.03511776535 0.01564440538 6.961071369e-27)
(-0.04171342039 0.01335996749 -1.225264915e-24)
(-0.04683568596 0.009919765562 -4.554344202e-25)
(-0.05014985634 0.005602430904 -1.063318006e-23)
(-0.05141228632 0.0007444215285 0)
(-0.05047790197 -0.004241776045 0)
(-0.04733703604 -0.008887179519 2.671248679e-23)
(-0.04215925727 -0.01268175982 2.813247427e-23)
(-0.03531435788 -0.01513604159 -1.646314655e-24)
(-0.0273899517 -0.01586188654 4.846379592e-23)
(-0.01917005293 -0.01467333508 9.420268463e-23)
(-0.0115609051 -0.01169360029 3.976751051e-23)
(-0.005465411614 -0.007450742386 4.14520388e-25)
(-0.001451099859 -0.002936044604 1.072079846e-25)
(-9.072726128e-05 0.0002258754949 0)
(-0.0005024637485 0.006045342897 -4.249902743e-23)
(-0.006402737986 0.0163707396 -1.693338531e-23)
(-0.01553501601 0.02355931418 8.200432913e-24)
(-0.02627910379 0.02744160231 0)
(-0.03728744215 0.02832099862 0)
(-0.04769034167 0.02658770539 0)
(-0.05679659109 0.02263118835 -4.481724324e-26)
(-0.06405379703 0.01683608374 -2.134216433e-24)
(-0.06901076971 0.009622180703 0)
(-0.07130823345 0.001491052963 1.636030069e-24)
(-0.07070849198 -0.006936495558 2.803135449e-25)
(-0.06713035504 -0.01493017557 -2.810984163e-25)
(-0.06069902281 -0.02166726553 0)
(-0.05180747904 -0.02631604016 4.133754612e-23)
(-0.04114989772 -0.02816069214 -4.682077262e-23)
(-0.02971968996 -0.02677370858 -2.762480647e-23)
(-0.01873716002 -0.02221529574 -3.961913107e-23)
(-0.009488025367 -0.01521921727 7.795956182e-25)
(-0.00297687929 -0.007298194173 9.789287857e-23)
(-0.0002318797536 -0.0008661692135 0)
(-0.0005316129946 0.0100950064 4.27056989e-23)
(-0.007983588007 0.02595217256 4.78371148e-25)
(-0.01939686225 0.03642879747 -4.674453074e-25)
(-0.03282380242 0.04185517321 0)
(-0.04664685794 0.04289481925 7.781317872e-25)
(-0.05985225547 0.0402007114 -7.67342707e-25)
(-0.0716328652 0.03434739442 3.671796881e-23)
(-0.08132745872 0.025856627 1.847703411e-23)
(-0.08836595415 0.01527297882 6.237524887e-24)
(-0.09225463828 0.003246151541 -1.637936066e-24)
(-0.09260374253 -0.009407819623 0)
(-0.08917550374 -0.02167476057 4.371362461e-25)
(-0.08195974727 -0.03236742613 1.009256196e-23)
(-0.07126881701 -0.0402124747 -4.349817233e-23)
(-0.05782015963 -0.04402043729 1.933212171e-24)
(-0.0427858099 -0.042948271 4.218312998e-23)
(-0.02775449124 -0.03683345247 -3.843444522e-25)
(-0.01455061698 -0.02652719996 0)
(-0.004859460322 -0.01408454174 5.436546421e-23)
(-0.0003641481301 -0.002846953955 -2.564969611e-22)
(-0.0005272206571 0.01499926436 9.840431054e-23)
(-0.009377918925 0.03739019149 -4.906925112e-25)
(-0.02288181233 0.05170218812 0)
(-0.03883040933 0.05894178553 0)
(-0.05538653113 0.06025570197 -8.731610867e-23)
(-0.07142872022 0.05661897181 -8.498594091e-23)
(-0.08606648671 0.04880165748 -4.067003847e-23)
(-0.0985507991 0.03743978575 -1.504124123e-23)
(-0.1081944666 0.02315983239 -5.367720001e-24)
(-0.1143444073 0.006709684375 -8.174345809e-24)
(-0.1164045565 -0.0109329049 6.600442372e-24)
(-0.1138936792 -0.02848942409 8.825475002e-24)
(-0.1065486429 -0.04437042913 -1.892317784e-23)
(-0.0944679934 -0.05675330038 4.602673365e-24)
(-0.07826853148 -0.06378294923 0)
(-0.05922892704 -0.06393492046 -1.573416127e-23)
(-0.03933980138 -0.05653813618 -2.412295526e-26)
(-0.02114187865 -0.04235807403 0)
(-0.007318699369 -0.02398228672 -1.520538378e-22)
(-0.0005216160969 -0.005925544482 6.056051128e-22)
(-0.000499081864 0.02064572924 -9.773393421e-23)
(-0.01052950318 0.05045434154 2.831874119e-22)
(-0.02582955823 0.06912506348 1.526807864e-22)
(-0.04402135596 0.07849252089 3.619122399e-24)
(-0.06310735371 0.08029470802 -7.319338696e-23)
(-0.08190400262 0.07588038013 9.043017765e-23)
(-0.09947757979 0.0662168686 -3.590058134e-24)
(-0.1150226739 0.05201692544 -1.729090014e-24)
(-0.1277518498 0.0339235744 2.524040833e-24)
(-0.1368471899 0.01270233661 7.382020209e-24)
(-0.1414709824 -0.01058780402 -6.500228329e-24)
(-0.1408247512 -0.03446021184 -9.786778354e-24)
(-0.1342745351 -0.05692767553 -3.261749925e-23)
(-0.1215449699 -0.07553311463 -3.660708937e-23)
(-0.1029672213 -0.08754255641 5.644377227e-25)
(-0.0797636654 -0.0903920505 0)
(-0.05426680223 -0.0824450991 0)
(-0.02987159686 -0.06397734192 -2.905895446e-24)
(-0.01066284682 -0.03798793381 2.970340923e-24)
(-0.0007350931634 -0.01050089256 1.027871011e-22)
(-0.000447916414 0.02687249127 0)
(-0.01134922632 0.0648075271 2.001980504e-22)
(-0.02801598182 0.08829610814 8.962064992e-23)
(-0.04799854811 0.1001234245 0)
(-0.06920598432 0.1027075877 1.569834311e-22)
(-0.09044368687 0.09781572721 0)
(-0.110783115 0.08661098426 -1.428362502e-22)
(-0.129409317 0.0698394731 6.515406248e-24)
(-0.1454770998 0.04808230854 0)
(-0.1580351151 0.02201755975 0)
(-0.1660132789 -0.00733441893 -1.374371109e-24)
(-0.1682670907 -0.03838836142 -9.316387715e-25)
(-0.1637064085 -0.0688397104 1.491928835e-22)
(-0.1515208211 -0.09558270091 -4.704637337e-23)
(-0.1315134086 -0.1148298054 -2.560814701e-24)
(-0.1045595706 -0.1225702824 1.534568521e-24)
(-0.07309347298 -0.1155517457 -1.558775237e-24)
(-0.04135019991 -0.09283111819 0)
(-0.01525229699 -0.05740765557 3.203726174e-24)
(-0.001044308489 -0.01714713975 -1.012891993e-21)
(-0.0003744665393 0.03346302159 0)
(-0.01175005602 0.07998913206 -1.128238176e-22)
(-0.02920706755 0.1086390211 -6.191046673e-22)
(-0.05031742998 0.1232233193 -3.755256091e-22)
(-0.07296314552 0.1269096262 0)
(-0.09598956511 0.1219254963 4.119405695e-22)
(-0.1185273049 0.1096348112 1.260902183e-22)
(-0.1398145935 0.09078242312 -5.58175618e-24)
(-0.1590221031 0.06581391514 5.554129486e-24)
(-0.1751460464 0.03520881385 0)
(-0.1869559437 -0.000196725679 2.912097188e-23)
(-0.1930172106 -0.03889750503 4.695757601e-24)
(-0.1917809391 -0.07843883275 -1.076782505e-22)
(-0.1817873949 -0.1151864747 8.003958098e-23)
(-0.1620570003 -0.1442598773 -2.419694005e-22)
(-0.1327061642 -0.1598547935 0)
(-0.09577885496 -0.1563112258 0)
(-0.05601631426 -0.1302980593 0)
(-0.02147858466 -0.0838113216 0)
(-0.001500383932 -0.02665515446 5.572006021e-22)
(-0.0002873901672 0.04016075181 0)
(-0.01169359377 0.09543605496 -3.492965497e-22)
(-0.02924437612 0.129407283 8.93269631e-22)
(-0.05060946036 0.14692983 3.617130008e-22)
(-0.07370080789 0.1519747834 0)
(-0.09745148708 0.1472757226 -3.8625066e-22)
(-0.1211069549 0.134419137 -3.174398879e-23)
(-0.1440324467 0.1141392929 3.333078845e-22)
(-0.1655142897 0.08670004761 1.769461407e-22)
(-0.1846248173 0.05229123695 -4.060122874e-23)
(-0.2001325458 0.01141718339 1.656821031e-23)
(-0.2104622088 -0.03471420246 -8.265163838e-24)
(-0.2137208175 -0.0837655821 3.371830249e-22)
(-0.2078215152 -0.131875569 0)
(-0.1908238207 -0.17327554 2.420863006e-22)
(-0.1616335442 -0.2002592629 5.774612254e-24)
(-0.1211662451 -0.2040120984 -5.860728804e-24)
(-0.07384988202 -0.1772119358 1.548392138e-22)
(-0.02971786108 -0.1188641941 -5.435287837e-24)
(-0.002179544398 -0.04005397489 0)
(-0.0002117204065 0.04671637427 0)
(-0.01125001125 0.1105497506 0)
(-0.02815624399 0.1497354176 -5.0227067e-22)
(-0.0487447904 0.1701516702 -1.880981792e-23)
(-0.07100086114 0.1766256277 2.038362576e-23)
(-0.09399450727 0.1724525752 -2.014295264e-23)
(-0.1171434205 0.1594870393 -2.316867569e-23)
(-0.1400179402 0.1384804685 -3.029799711e-22)
(-0.1621328788 0.1095160527 6.698613476e-23)
(-0.1827958939 0.0724518716 4.513144585e-23)
(-0.2009835462 0.02734930967 -4.577686666e-23)
(-0.2152270166 -0.02508693931 0)
(-0.2235562105 -0.08298346097 -7.839547939e-23)
(-0.2234632071 -0.1427256689 0)
(-0.2120679285 -0.1981820152 -3.739533722e-22)
(-0.1867434386 -0.2400772919 5.24489914e-22)
(-0.1464438144 -0.2560772646 0)
(-0.0939456646 -0.2331208836 -1.493939963e-22)
(-0.04022000321 -0.1639613198 1.937494652e-22)
(-0.003201099494 -0.05861061491 -3.411474347e-22)
(-0.0002015417349 0.05297582655 0)
(-0.01067262236 0.1248171788 9.182813971e-22)
(-0.0262844732 0.1687423769 -2.440668865e-23)
(-0.04501108663 0.1916454248 9.193285362e-22)
(-0.06494598496 0.1992920193 -2.512070454e-23)
(-0.08536629658 0.1956103571 2.838828438e-23)
(-0.1059305776 0.1827886266 -2.812914642e-23)
(-0.1264924334 0.1616583131 -1.660910024e-23)
(-0.1468997016 0.1321762131 -5.260204737e-22)
(-0.1668458346 0.09389646948 -8.90658803e-24)
(-0.1857303226 0.04640578407 9.660153929e-24)
(-0.2024781889 -0.01023781127 3.313065701e-22)
(-0.2154154799 -0.0749981548 -5.820713926e-22)
(-0.2220209863 -0.1450311255 0)
(-0.2188032194 -0.2146759956 8.887270369e-22)
(-0.2016257549 -0.2740015704 -4.940835105e-22)
(-0.166863916 -0.3075811218 -1.572206365e-23)
(-0.1140220033 -0.2953811227 0)
(-0.05288481525 -0.2195802067 -1.890129287e-22)
(-0.004749187432 -0.08377275952 3.360533081e-22)
(-0.0003641995645 0.05902315605 1.551001967e-23)
(-0.01049574609 0.1379880954 -8.764144208e-22)
(-0.02441390878 0.1856803347 -1.157053546e-21)
(-0.04026726397 0.2101383914 -8.628937535e-22)
(-0.05630732117 0.2182348101 0)
(-0.07214859532 0.2146189572 3.513789738e-23)
(-0.08779225039 0.2018791427 -7.294835638e-23)
(-0.1034563175 0.181000528 5.867861456e-23)
(-0.1193984296 0.1518997114 3.021354579e-22)
(-0.1357932002 0.1139150629 -1.128191822e-23)
(-0.1526082796 0.06621427144 0)
(-0.1694521853 0.008177237875 -3.603916486e-22)
(-0.1852761054 -0.06015983316 7.515643799e-22)
(-0.1980448926 -0.1372746506 8.831676773e-22)
(-0.2043546595 -0.2189261327 -5.296600893e-22)
(-0.1990977844 -0.2959712303 5.162663923e-22)
(-0.1760605454 -0.3514071942 1.078216484e-23)
(-0.1300890664 -0.3584150147 -1.09553126e-23)
(-0.06688803146 -0.2843275995 -8.215865789e-23)
(-0.007083319399 -0.1169964194 0)
(-0.000909578713 0.0654003982 -1.911478566e-23)
(-0.01167592632 0.1502815948 -1.326960386e-21)
(-0.02388884011 0.2000658902 1.094232266e-21)
(-0.0360134337 0.2244216224 6.734902674e-22)
(-0.04657312589 0.2316587521 6.014607815e-22)
(-0.05577043118 0.2272393077 6.643931651e-22)
(-0.06411251007 0.2141774417 -4.458662009e-23)
(-0.07227567439 0.193649411 -3.461326264e-22)
(-0.08096979169 0.1656028234 2.152156219e-22)
(-0.09087198827 0.1292707443 0)
(-0.1025548117 0.08353084737 0)
(-0.1163622817 0.02720013992 2.655390628e-22)
(-0.1321590194 -0.04062002122 8.194330681e-23)
(-0.1489252901 -0.1200127884 -2.821611651e-22)
(-0.1641284784 -0.2089300243 -5.4112557e-23)
(-0.1727878013 -0.3006992033 1.301951149e-22)
(-0.1670311568 -0.3793328592 -3.400477547e-22)
(-0.136529257 -0.4136451441 -1.594108593e-23)
(-0.08018250421 -0.3538325733 8.204637717e-23)
(-0.01050762279 -0.1594130342 -6.032213876e-22)
(-0.002260499495 0.07348882336 0)
(-0.01580356736 0.1626521419 2.145866706e-21)
(-0.02665044968 0.2117904209 0)
(-0.03422343322 0.2333946657 -1.351802765e-21)
(-0.03759403409 0.2377766219 6.184055057e-23)
(-0.0379969117 0.2312553 -6.193070858e-22)
(-0.0366827259 0.2171898625 -4.756268339e-22)
(-0.03489043585 0.1968934277 8.301228863e-22)
(-0.03378845512 0.1703342336 -1.885692589e-22)
(-0.03449884175 0.136722118 0)
(-0.03811580405 0.09479675862 0)
(-0.04564999907 0.04304289625 2.410617403e-23)
(-0.05790811416 -0.02013777777 -6.007184364e-22)
(-0.07514605124 -0.09620646691 -4.309555978e-22)
(-0.09645180816 -0.1855555828 4.637850407e-22)
(-0.1183463097 -0.2853567431 -6.488708377e-22)
(-0.1332715738 -0.3838386177 9.119921018e-23)
(-0.1265351198 -0.4504358335 2.937609771e-23)
(-0.0889915481 -0.4198536002 5.660469396e-22)
(-0.01526917974 -0.2111719525 6.020846516e-22)
(-0.005180900459 0.08598045375 0)
(-0.02525551818 0.1766290962 1.465579856e-22)
(-0.03483410526 0.2205961174 -4.91712816e-23)
(-0.0364001792 0.2354858884 7.6429028e-22)
(-0.03018488476 0.2343406279 -7.005351849e-22)
(-0.0191658601 0.2241603468 4.746464438e-23)
(-0.005615223666 0.2083525538 -1.018606588e-22)
(0.008569529345 0.1881240917 -3.389878149e-22)
(0.02179878067 0.1633911239 2.062817103e-22)
(0.03262773434 0.1333242828 0)
(0.03958450793 0.09664088142 0)
(0.04117005938 0.05174059041 -2.902661387e-22)
(0.03578477014 -0.003255369332 0)
(0.02198178477 -0.07058358017 -5.512175031e-22)
(-0.001264900942 -0.1525735249 -1.492372878e-23)
(-0.03310474504 -0.2505949615 2.559725395e-23)
(-0.06909239513 -0.3599341291 2.203117027e-22)
(-0.09227829424 -0.4575424306 4.788249201e-24)
(-0.08718090906 -0.4698129167 -5.789439528e-22)
(-0.02103127252 -0.2698972135 0)
(-0.01111631605 0.108597497 0)
(-0.04248902769 0.1947151566 -8.84845449e-22)
(-0.04795531145 0.2258195282 -5.411025363e-22)
(-0.0391953963 0.2282135247 4.543802499e-22)
(-0.01877835384 0.2182327804 -1.709985326e-24)
(0.007664251112 0.2028220054 -4.561033652e-23)
(0.03667986286 0.1847619541 5.696662518e-22)
(0.06582990992 0.164711808 -2.766882282e-23)
(0.09327123151 0.1423128149 -2.069775977e-22)
(0.1173890851 0.1166275008 3.142205474e-23)
(0.1365460971 0.08641145364 -3.425909223e-23)
(0.1489668607 0.05017671022 -3.690586407e-23)
(0.1525275189 0.006159189114 3.205626685e-22)
(0.1449366513 -0.0479612488 6.119592698e-22)
(0.1235159342 -0.1153052723 -5.101158172e-22)
(0.08633529722 -0.2004195502 -1.616046421e-22)
(0.03199086042 -0.3067806476 1.531319833e-22)
(-0.0236212548 -0.4239837028 7.293668733e-23)
(-0.06492413999 -0.4871612655 1.913293977e-21)
(-0.02509971833 -0.329154464 2.954994141e-21)
(-0.02004680452 0.1460727433 -4.390199725e-23)
(-0.06416406662 0.2112955837 4.417372427e-23)
(-0.05070231864 0.2177300381 1.000186063e-21)
(-0.0193409979 0.201467982 -8.270510673e-24)
(0.02414461263 0.1809075983 0)
(0.07154117254 0.1606933158 4.363706596e-23)
(0.1190702839 0.1416495341 -2.273844008e-22)
(0.164476671 0.1233181726 -9.027925756e-23)
(0.2062250516 0.1048117265 3.680722726e-23)
(0.2429642393 0.08507140436 -1.701650952e-23)
(0.2732206989 0.06296148562 3.429962522e-23)
(0.295253558 0.03726295071 -6.592665817e-23)
(0.3066970598 0.006535082276 -9.303890364e-23)
(0.3049737921 -0.03087768678 1.517039722e-22)
(0.2863935928 -0.07786289826 0)
(0.2470567827 -0.139930029 1.505597969e-22)
(0.1810922027 -0.2266299716 2.560015418e-22)
(0.0960444868 -0.3443894901 0)
(-0.006697623896 -0.4552210169 -3.675638722e-21)
(-0.01922408332 -0.3777537542 -2.892623527e-21)
(-0.02591951249 0.2276828829 -9.514199035e-22)
(-0.03998324479 0.2238216549 -1.388974132e-22)
(0.03656136776 0.1810585344 -2.335575562e-22)
(0.1090502969 0.1451059036 -1.19373891e-22)
(0.1817191029 0.1172445414 -4.295811759e-23)
(0.2490090474 0.09627906768 9.783138079e-23)
(0.3100336363 0.08002509678 -1.408586309e-22)
(0.3646208935 0.06656814842 1.297170726e-22)
(0.4126252065 0.0544917871 -8.620093372e-23)
(0.453624987 0.04270895059 1.132189465e-25)
(0.486787832 0.03032298819 1.527737934e-23)
(0.5107451007 0.01652902438 7.997186029e-23)
(0.5236597159 0.0005365205418 -1.81111941e-22)
(0.5231797785 -0.01863372645 -1.617141864e-22)
(0.505232325 -0.04286478466 -4.262924837e-23)
(0.4658714961 -0.07633230875 0)
(0.3952696409 -0.1286089374 -1.846484957e-22)
(0.2916070981 -0.2208468095 8.148771088e-22)
(0.1197455065 -0.35250169 1.631602834e-21)
(0.02670547158 -0.3775497973 2.172656534e-21)
(0.2142894479 0.1347447215 9.864983374e-22)
(0.2776311216 0.09870503682 0)
(0.4316592325 0.05810414904 -2.5943151e-22)
(0.5304749361 0.03846264949 -1.741661013e-22)
(0.6016965727 0.02623419054 0)
(0.6571198887 0.01831923394 -6.009064068e-23)
(0.7015213486 0.01313600777 6.377972868e-23)
(0.737604235 0.009542125976 -1.800149118e-23)
(0.7669368248 0.006804463684 2.885963028e-23)
(0.7902106516 0.004464744414 2.315025629e-23)
(0.8074554857 0.002221320716 0)
(0.8182621229 -0.000150073897 -2.873025471e-23)
(0.8216499624 -0.002723847141 0)
(0.8162394142 -0.005712667786 2.738136469e-23)
(0.7991333123 -0.009611382318 1.421677659e-23)
(0.767998634 -0.01500255093 -5.799418032e-23)
(0.7106555758 -0.02502519979 -2.53566538e-22)
(0.6235183982 -0.04204285437 -6.918107751e-22)
(0.4230091019 -0.09182968112 0)
(0.2705674688 -0.1524021842 -2.119484383e-21)
)


// ************************************************************************* //
