/*--------------------------------*- C++ -*----------------------------------*\
  =========                 |
  \\      /  F ield         | OpenFOAM: The Open Source CFD Toolbox
   \\    /   O peration     | Website:  https://openfoam.org
    \\  /    A nd           | Version:  13
     \\/     M anipulation  |
\*---------------------------------------------------------------------------*/
FoamFile
{
    format      ascii;
    class       scalarField;
    location    "7.43";
    object      p_all;
}
// * * * * * * * * * * * * * * * * * * * * * * * * * * * * * * * * * * * * * //


400
(
-3.950063895e-10
-0.0004857237279
-0.0007724754429
-0.0008494799346
-0.0007286306874
-0.0004413499463
-2.352117248e-05
0.0004907528546
0.001067322036
0.001668871354
0.002253254617
0.002772038673
0.003173481825
0.003406963532
0.00343104001
0.003224321227
0.002798850797
0.00220704775
0.001608459399
0.001055560067
0.0005218325185
5.704046442e-06
-0.0003018966753
-0.0003932396501
-0.000314842067
-9.290857934e-05
0.0002435265481
0.0006656323899
0.001142999539
0.001640318192
0.00212128082
0.00253739358
0.002841412791
0.002988009828
0.002942859722
0.002693369517
0.002258768768
0.001695500978
0.001150050613
0.0005392126634
0.0008275416529
0.0002566333139
-8.402033025e-05
-0.0001777934404
-0.00011839246
6.491195023e-05
0.0003474044946
0.000706584166
0.001118282478
0.001553426262
0.001973882085
0.002336745065
0.002592911104
0.00269567622
0.002609764102
0.002321925977
0.001849449495
0.001241187138
0.0006018505969
-0.0001778804816
0.0008135198519
0.000177524564
-0.0002054719958
-0.000301190742
-0.0002491949228
-8.507720861e-05
0.0001684762674
0.000495566227
0.0008796715367
0.001297824351
0.001715274538
0.002086859264
0.002357021368
0.002468883572
0.002374951046
0.002049977264
0.001500684124
0.0007674471009
-7.284246238e-05
-0.001134528727
0.0003287819462
-0.0003514913524
-0.0007587846165
-0.0008482338683
-0.0007963847599
-0.0006437310078
-0.0004094150496
-0.0001001304703
0.0002786122843
0.0007133096178
0.001174283078
0.001614974096
0.001969383087
0.002162346733
0.002121860712
0.001796274457
0.001169648864
0.0002698393515
-0.00084688236
-0.002263063117
-0.0007588550619
-0.0014578424
-0.001873918908
-0.001954506907
-0.001907278727
-0.001775202694
-0.001570710826
-0.001286908157
-0.0009125363587
-0.0004448148082
9.794582045e-05
0.0006726382171
0.001202150424
0.001585509515
0.001710214661
0.001475925804
0.0008213141599
-0.0002520395846
-0.001712898966
-0.003581798267
-0.002572827381
-0.003264246665
-0.003683246732
-0.003765834831
-0.003748371392
-0.003673942478
-0.003544381172
-0.003333209605
-0.00300355516
-0.002524567011
-0.001889903628
-0.001125167039
-0.0003121127896
0.0004192581941
0.0008969070829
0.0009373523392
0.0003921017604
-0.0007985278286
-0.002652791462
-0.005088821766
-0.005219285021
-0.005882439136
-0.006308359158
-0.006421929426
-0.006486675542
-0.006544478133
-0.006583298474
-0.006550578506
-0.006372527186
-0.005973077866
-0.005298529829
-0.004324834617
-0.003122362934
-0.001839923031
-0.0007245808863
-8.961787106e-05
-0.0002413539859
-0.001374000509
-0.003619081895
-0.006742684727
-0.008777214002
-0.009395892428
-0.009841007376
-0.01003059425
-0.01025577867
-0.01055864484
-0.01091253186
-0.01123391538
-0.01140042323
-0.01126794831
-0.01069242684
-0.009592002398
-0.007947126371
-0.005899319564
-0.003768725869
-0.002046883288
-0.001301381505
-0.001993220416
-0.004505550588
-0.008408269541
-0.01328431775
-0.01384412975
-0.01432146149
-0.01463473094
-0.01510836565
-0.01579089122
-0.01664504932
-0.0175559295
-0.01834405535
-0.01877791947
-0.01859746604
-0.01756594388
-0.01554151326
-0.01257597339
-0.009015982788
-0.00555116962
-0.003128595753
-0.002680820802
-0.005103300301
-0.009774171449
-0.01872967953
-0.0192126872
-0.01972017571
-0.02017893615
-0.02096335371
-0.02214135442
-0.02367502377
-0.02542377582
-0.02714974392
-0.02852020903
-0.02912453509
-0.02852339162
-0.02636544747
-0.02249521858
-0.01717907119
-0.01125084234
-0.006115579886
-0.003430022431
-0.005027950532
-0.01021797709
-0.02506411526
-0.0254372434
-0.02593163783
-0.02648699565
-0.02756478476
-0.02927342554
-0.03158943581
-0.03435710846
-0.03728632539
-0.03994163182
-0.04174674751
-0.04202515142
-0.04013196408
-0.03559443205
-0.0284275023
-0.01944333464
-0.01045754713
-0.004054520521
-0.00359241896
-0.008595154547
-0.03224249432
-0.03242899147
-0.03278546755
-0.03325802379
-0.03446862331
-0.03659549001
-0.03964576566
-0.04345791828
-0.04769721372
-0.05183254327
-0.05512774084
-0.05667306891
-0.05546066786
-0.05064437032
-0.04181169445
-0.02949311069
-0.01567720064
-0.003867290785
0.0004178414803
-0.002943191834
-0.04032371036
-0.04013075997
-0.04008048036
-0.04009001667
-0.04107481437
-0.04331660165
-0.04686227112
-0.05154238055
-0.05697540982
-0.06253861092
-0.06734659223
-0.07026366194
-0.06997336891
-0.06519101923
-0.05498767447
-0.03935874642
-0.02008275719
-0.001220666068
0.009103981589
0.009854329709
-0.0496675674
-0.04858689332
-0.04760179155
-0.04649074479
-0.04667360798
-0.04855303309
-0.0522003879
-0.05741081168
-0.06373213992
-0.07043461971
-0.07648466641
-0.08053809806
-0.08100268644
-0.07618552115
-0.06464793006
-0.04569756043
-0.02055778493
0.006883750447
0.02591136604
0.0344626231
-0.06141920069
-0.05814803309
-0.05523003165
-0.05197876154
-0.0505878409
-0.05152892984
-0.05482963382
-0.06018227686
-0.06701432046
-0.07443718433
-0.08124966642
-0.08589145052
-0.0865113943
-0.0810395193
-0.06762114908
-0.04479623309
-0.01314635635
0.0249338776
0.05600823661
0.07762794988
-0.07823634901
-0.06934210816
-0.06264196831
-0.05585630438
-0.05208107241
-0.05159855033
-0.05423302855
-0.05945543616
-0.06647783169
-0.07421723318
-0.08125232532
-0.08578256123
-0.08569209496
-0.07853182407
-0.06199094027
-0.03404710887
0.005337664073
0.05822949763
0.1055464001
0.1477033684
-0.1089931086
-0.08457116684
-0.07064905331
-0.05824015895
-0.05114302304
-0.04881873496
-0.05058022535
-0.05550567914
-0.06249104174
-0.07019095133
-0.07694360315
-0.08070332571
-0.07912563461
-0.06915039949
-0.04816559576
-0.01319573012
0.03744320754
0.1062379648
0.1771694363
0.2556226997
-0.1673338998
-0.0989956848
-0.07448794077
-0.0545120933
-0.04429171136
-0.04094044181
-0.04258662065
-0.04773974326
-0.05497590427
-0.06274000943
-0.06920246759
-0.07214663773
-0.06882608979
-0.0563809486
-0.03104836439
0.01136701335
0.07468218322
0.1653350219
0.2750948158
0.4366944812
-0.3973512901
-0.1372805869
-0.07456790546
-0.04696381279
-0.0334091706
-0.02959239632
-0.03189275935
-0.03784761631
-0.04572732443
-0.05388462622
-0.06046550093
-0.06325893789
-0.05968211413
-0.04626119094
-0.01865782159
0.0295117188
0.1061683306
0.2324623998
0.4188879598
0.7790666909
)


// ************************************************************************* //
