/*--------------------------------*- C++ -*----------------------------------*\
  =========                 |
  \\      /  F ield         | OpenFOAM: The Open Source CFD Toolbox
   \\    /   O peration     | Website:  https://openfoam.org
    \\  /    A nd           | Version:  13
     \\/     M anipulation  |
\*---------------------------------------------------------------------------*/
FoamFile
{
    format      ascii;
    class       scalarField;
    location    "2";
    object      p_all;
}
// * * * * * * * * * * * * * * * * * * * * * * * * * * * * * * * * * * * * * //


400
(
1.251269594e-08
-0.0002697412224
-0.0003537005103
-0.0002393951172
4.598801371e-05
0.0004726064156
0.001010688484
0.001634222319
0.002320869343
0.00304998878
0.003799502056
0.004546828941
0.005262371392
0.005912315827
0.006457451716
0.006855936941
0.007069786646
0.007075899764
0.006889330656
0.006530206696
0.0002926554097
5.361947374e-06
-0.0001017406088
-8.750846588e-06
0.0002437764306
0.0006319313715
0.001130868181
0.001717703965
0.002370759856
0.003068207635
0.003786861331
0.004499350123
0.005175499357
0.00578050168
0.006276714379
0.006626668557
0.00679852465
0.006777343011
0.006563985968
0.006179487449
0.0003772822477
7.417460873e-05
-4.987101459e-05
3.775298655e-05
0.0002772007561
0.0006476366522
0.001128522225
0.001700007332
0.002342002176
0.003032808945
0.003747808492
0.004458349327
0.005131058934
0.00572843416
0.006210709742
0.006539945137
0.006686599828
0.006637996006
0.006378149556
0.005939135914
0.0002002852576
-0.0001201189347
-0.000257328549
-0.0001657398555
7.85804309e-05
0.0004546369852
0.0009438298521
0.001529029805
0.002192327909
0.002912953071
0.003665380575
0.004418768853
0.005135225355
0.005771627561
0.006281677869
0.00662113079
0.00675572799
0.006670714771
0.006338056183
0.005814035389
-0.0002843684659
-0.0006120960409
-0.0007499142421
-0.0006414479359
-0.0003755028286
2.639849283e-05
0.000547380229
0.001173372894
0.001889352927
0.002676222949
0.003507788386
0.004350618066
0.005160207664
0.005884455713
0.006465634505
0.006847613524
0.006986480185
0.006863380594
0.006442143357
0.005809775579
-0.001117566406
-0.001446915083
-0.001578916812
-0.001442384762
-0.001139937094
-0.0006938604404
-0.000119059405
0.0005742481303
0.001375162721
0.002267524079
0.003224674397
0.004211394428
0.005173815636
0.006047293652
0.00675641545
0.007225430263
0.007393405255
0.007232985984
0.00669732414
0.00591070544
-0.002340739888
-0.00267626201
-0.002801861134
-0.002630227637
-0.002281123535
-0.001778017777
-0.001133288372
-0.0003518761489
0.0005614755327
0.001595356936
0.002722172936
0.003918570344
0.005108036279
0.006211985095
0.007130054054
0.00775537531
0.007996930841
0.007807917748
0.00711821935
0.006100333061
-0.004007347943
-0.004361632665
-0.004486221515
-0.004278650585
-0.003880827669
-0.003318084394
-0.002599347201
-0.001721960169
-0.0006811993224
0.0005220829927
0.001877256871
0.003331148672
0.004832276743
0.006273792962
0.007520506655
0.008417148176
0.008818905994
0.008635109385
0.007741866427
0.006378111536
-0.006187002541
-0.006577915259
-0.006712295412
-0.006474995111
-0.006037484048
-0.005428258248
-0.004651862712
-0.003695152228
-0.002539075116
-0.001168493952
0.0004192952534
0.002195404028
0.004100445026
0.006015925909
0.007767943664
0.009130428137
0.009864315634
0.009784597304
0.008647511569
0.006784115444
-0.008968899799
-0.009416203461
-0.009574470432
-0.009319193367
-0.008863122617
-0.008240472293
-0.007451034167
-0.006468387779
-0.005253846215
-0.003767022966
-0.001976226586
0.0001207848712
0.002492634643
0.005029540582
0.007529558575
0.009675578068
0.01107203608
0.01134215445
0.009985099057
0.007447349922
-0.01246813735
-0.01298743637
-0.01318150167
-0.01291927171
-0.01247422047
-0.01189109242
-0.011166334
-0.01025942714
-0.009108949504
-0.007641830873
-0.005781837579
-0.003468417295
-0.0006520068757
0.002613132969
0.006149545599
0.009557660745
0.01221044889
0.01337065899
0.01201059563
0.008676950964
-0.01684029323
-0.01742948248
-0.01765617817
-0.01738139532
-0.01697180149
-0.01649018817
-0.01593350618
-0.01524998606
-0.01435785957
-0.01315079901
-0.01149536334
-0.009224596756
-0.006187368548
-0.002240432903
0.002575522849
0.007866253933
0.01273223725
0.01583251935
0.0151255052
0.01112753627
-0.02231465792
-0.02292135834
-0.02313400614
-0.02279131956
-0.02240647864
-0.0220687993
-0.02178067389
-0.02148577512
-0.02109192362
-0.02046867442
-0.01942839027
-0.01769451771
-0.01488573796
-0.01057856635
-0.004444916678
0.003354196954
0.01174561289
0.01854995441
0.01994535405
0.01608994303
-0.02926977698
-0.0297136665
-0.02976369158
-0.02918647958
-0.02872657743
-0.02850226763
-0.02852133086
-0.02872847097
-0.02903521545
-0.02930653496
-0.02931667257
-0.02867224411
-0.02671771508
-0.02267131295
-0.01552483992
-0.004839640021
0.008490519395
0.0214582621
0.02752414815
0.02595913154
-0.03839311531
-0.03816500344
-0.03767940072
-0.03648749788
-0.03568915612
-0.03540815683
-0.0356390021
-0.03632064016
-0.03737465294
-0.03867717798
-0.03998338748
-0.04080669773
-0.04028345036
-0.03698708909
-0.02928078746
-0.01569365216
0.003657289192
0.02554099628
0.04004887275
0.04491693613
-0.05110555246
-0.04888467337
-0.04702542206
-0.04446036143
-0.04279881595
-0.04208477077
-0.04224278883
-0.04317028866
-0.04477748964
-0.04693809887
-0.04938110147
-0.05152113122
-0.05225774122
-0.04974115526
-0.04152300703
-0.02500447276
0.001013877915
0.03441427232
0.06207855761
0.07990630297
-0.07014764431
-0.06245076299
-0.05748099078
-0.05226653368
-0.04896823081
-0.04730653746
-0.04701030916
-0.04785511632
-0.04967576075
-0.05228434046
-0.05532497563
-0.05806506324
-0.0591615067
-0.05637879087
-0.04662553295
-0.02629213669
0.007329842716
0.05489550565
0.100949044
0.1405692009
-0.1038990218
-0.08071357691
-0.06916532456
-0.05904248954
-0.05292592246
-0.04967560825
-0.04855814066
-0.04906705947
-0.05083234165
-0.05349073172
-0.05650209259
-0.05890391152
-0.05907386049
-0.05434589033
-0.04112222339
-0.01482606929
0.02859703999
0.09302654646
0.1632525317
0.2400705247
-0.1645671766
-0.09705120182
-0.07554505788
-0.05816291867
-0.04922354368
-0.0451264556
-0.04401617283
-0.04487188934
-0.04704052229
-0.04995170146
-0.0528711088
-0.05461494496
-0.05330216746
-0.04566652609
-0.02788762924
0.005899610731
0.06167326092
0.1475457363
0.2556457491
0.4177032226
-0.3942007966
-0.1354592683
-0.07582416166
-0.05120771059
-0.03921318442
-0.03492891919
-0.03477952022
-0.03676385809
-0.03989100189
-0.04343855798
-0.04655024997
-0.04792907778
-0.04560227523
-0.03659326613
-0.01567403911
0.02473432255
0.09432604292
0.2159083168
0.4005256343
0.7609199255
)


// ************************************************************************* //
