/*--------------------------------*- C++ -*----------------------------------*\
  =========                 |
  \\      /  F ield         | OpenFOAM: The Open Source CFD Toolbox
   \\    /   O peration     | Website:  https://openfoam.org
    \\  /    A nd           | Version:  13
     \\/     M anipulation  |
\*---------------------------------------------------------------------------*/
FoamFile
{
    format      ascii;
    class       scalarField;
    location    "2";
    object      p_all;
}
// * * * * * * * * * * * * * * * * * * * * * * * * * * * * * * * * * * * * * //


400
(
-4.768649321e-10
-0.0001331129046
3.227282594e-05
0.0005911484636
0.001554081583
0.002892012202
0.004559366521
0.006500127544
0.008650046053
0.01093807956
0.01328774774
0.01561867561
0.01784846186
0.01989502881
0.02167953485
0.02313005455
0.02418661375
0.02481034779
0.02500968493
0.02489134485
0.0001192514704
-2.310694587e-05
0.0001770699362
0.0007481151493
0.00170303906
0.003019625447
0.004657500863
0.006564111763
0.008677529688
0.01092837963
0.01324148499
0.01553759019
0.0177353748
0.01975399401
0.02151633135
0.02295324016
0.02400923964
0.02465162492
0.02489039873
0.02476652916
-5.065492858e-05
-0.0002563718056
-6.070406058e-05
0.0005201452014
0.001491069287
0.002827658052
0.004489379139
0.006423942438
0.008569541666
0.01085664392
0.0132095872
0.01554826347
0.01779010694
0.01985264966
0.0216568498
0.02313142734
0.02421835605
0.0248809053
0.02512043159
0.02493657209
-0.0006321452767
-0.0008923805987
-0.0007020276867
-9.931416755e-05
0.0009149577548
0.002312112101
0.004048860114
0.006070952743
0.008314870124
0.01070927674
0.0131763729
0.01563334967
0.01799417173
0.02017199469
0.0220824463
0.02364805699
0.02480388695
0.0255058539
0.02574881316
0.02551446145
-0.001684331645
-0.001992040947
-0.001798323864
-0.001153952896
-6.329603011e-05
0.001439838012
0.003307549586
0.005481679882
0.007895225598
0.01047344163
0.013134798
0.01579200747
0.01835338653
0.02072494212
0.02281350469
0.02453136868
0.02580265845
0.02657332522
0.02683307666
0.02655585772
-0.003254918287
-0.00361003607
-0.003401286572
-0.002690269558
-0.001484883396
0.0001745653426
0.002233729472
0.004628747353
0.00728756796
0.01013068513
0.01307155872
0.01601698523
0.01886775281
0.02152009433
0.02386848737
0.02581054173
0.02725461329
0.02813262212
0.02842766659
0.02810871616
-0.005405501687
-0.005813538947
-0.005576487062
-0.004768991363
-0.003404414516
-0.001532066528
0.0007849415256
0.003475191531
0.006460230404
0.009654837611
0.01296671225
0.01629589125
0.0195343215
0.02256620046
0.02527001346
0.0275234425
0.0292124944
0.03024828658
0.03060260196
0.03023859272
-0.008220674042
-0.008691170034
-0.008410013352
-0.007469825904
-0.005893422817
-0.003743175395
-0.001094083178
0.001972809964
0.005371498718
0.009010620251
0.01279214694
0.01660947442
0.0203453839
0.02387055442
0.02704399474
0.02971726614
0.03174495343
0.03300657145
0.03345341543
0.03303916223
-0.01181539586
-0.01236077065
-0.01201465632
-0.01089567948
-0.00904293239
-0.006538031861
-0.003472112945
6.176080277e-05
0.003969121033
0.008152720464
0.01250992707
0.01692906831
0.02128509437
0.02543525019
0.02921646327
0.03244730947
0.03493876974
0.03652204932
0.03711143164
0.03664319629
-0.01634513938
-0.0169793057
-0.01653772866
-0.0151777418
-0.0129660874
-0.010012847
-0.00643101781
-0.002328493226
0.002191175713
0.007025999856
0.01207134014
0.0172141289
0.02232546341
0.02725210721
0.03180866715
0.03577434078
0.03890104315
0.04094647109
0.0417586341
0.04124026811
-0.02202203414
-0.02275721888
-0.02217157122
-0.02048145668
-0.01780019067
-0.01427988196
-0.01006297205
-0.005275448594
-3.017902378e-05
0.005568371452
0.01141809961
0.01741109986
0.02342255186
0.02929654235
0.03483009778
0.03975980735
0.0437609403
0.0464811101
0.04765105789
0.04710777649
-0.02914189548
-0.02998024263
-0.02916775406
-0.02701271041
-0.0237064055
-0.01946251633
-0.01446261523
-0.008854365101
-0.002759516561
0.003718785873
0.01048805332
0.01745586549
0.02451484714
0.03152168024
0.03826968981
0.04445814795
0.04967030513
0.05339411055
0.05515659345
0.05466685445
-0.0381309042
-0.03904271894
-0.03785509004
-0.03502143431
-0.03086272001
-0.02568128646
-0.01970930138
-0.01311923449
-0.006039699316
0.001433763024
0.009228706467
0.01728312298
0.02552718389
0.03385570469
0.04208701149
0.04990621011
0.0568021172
0.0620442055
0.06481577558
0.06458428455
-0.04962839876
-0.05049712285
-0.04865782983
-0.04479391177
-0.03943962167
-0.03302073186
-0.02583099845
-0.01806759339
-0.009859638921
-0.001284043149
0.007621909624
0.01684660133
0.0263849052
0.03620740226
0.04620720275
0.05611046395
0.0653442751
0.07290996788
0.07743630054
0.07795785993
-0.06463754458
-0.06512158985
-0.06209768688
-0.05660955168
-0.04953452641
-0.04145800315
-0.03273730227
-0.02358243483
-0.01410546279
-0.004344464841
0.005720037447
0.01615136165
0.02704138626
0.03848480238
0.05052410592
0.063031501
0.07547988277
0.08661365977
0.09422820538
0.09664632218
-0.08480984302
-0.08398822926
-0.07872331352
-0.0705999063
-0.06101607186
-0.05072397088
-0.04010959074
-0.02935065825
-0.0185008652
-0.007524188371
0.00368448971
0.01528982482
0.02751269626
0.04062359582
0.05490862632
0.07055430369
0.08732159002
0.1038908317
0.1169582311
0.12382978
-0.1130377745
-0.1084146862
-0.09878923067
-0.08636812621
-0.0732016109
-0.06007537926
-0.0472590295
-0.03478191315
-0.02256424368
-0.01044484816
0.001798296546
0.01445226707
0.02788901626
0.04259543391
0.05919110846
0.07839696729
0.1006999249
0.1253342637
0.1479842615
0.164922647
-0.155868514
-0.1397355959
-0.1213758425
-0.1022014594
-0.08437094968
-0.06806420959
-0.05305277174
-0.03901258463
-0.0256505953
-0.01263056817
0.0004021262516
0.01385851849
0.02826034226
0.04432491517
0.06303804594
0.08585859294
0.1146114138
0.1505118478
0.1898083853
0.2298548578
-0.2292320014
-0.1764781579
-0.1419914769
-0.1139682396
-0.09155880894
-0.07268111645
-0.05615419734
-0.04118324887
-0.02719706037
-0.01371756833
-0.0002911051945
0.01357950587
0.02851926522
0.04540787627
0.06558933326
0.09126697748
0.1260329559
0.1754900129
0.2421394565
0.3399159344
-0.3979040816
-0.2222920227
-0.1547581077
-0.1182433436
-0.09297558906
-0.07303926357
-0.0561627506
-0.0411441621
-0.02723012302
-0.01386651398
-0.0005692817999
0.01317147405
0.02799403691
0.04481987834
0.06515339762
0.09179094968
0.1304109009
0.1953075782
0.314507856
0.5671747037
)


// ************************************************************************* //
