/*--------------------------------*- C++ -*----------------------------------*\
  =========                 |
  \\      /  F ield         | OpenFOAM: The Open Source CFD Toolbox
   \\    /   O peration     | Website:  https://openfoam.org
    \\  /    A nd           | Version:  13
     \\/     M anipulation  |
\*---------------------------------------------------------------------------*/
FoamFile
{
    format      ascii;
    class       surfaceScalarField;
    location    "2";
    object      phi;
}
// * * * * * * * * * * * * * * * * * * * * * * * * * * * * * * * * * * * * * //

dimensions      [0 3 -1 0 0 0 0];

internalField   nonuniform List<scalar> 
760
(
-1.434066759e-05
1.434052983e-05
-5.852188444e-05
4.418123802e-05
-0.0001202225598
6.170072068e-05
-0.0001876531401
6.743064955e-05
-0.000253249505
6.55964272e-05
-0.0003122453492
5.899587553e-05
-0.0003616743719
4.942902931e-05
-0.0003996026572
3.792826995e-05
-0.0004245846208
2.498193933e-05
-0.0004353726188
1.078797094e-05
-0.0004309710113
-4.401649547e-06
-0.000410509984
-2.046106927e-05
-0.0003738450362
-3.666500202e-05
-0.000321869639
-5.197545551e-05
-0.0002571491135
-6.472055652e-05
-0.0001845519004
-7.259720695e-05
-0.0001116546111
-7.289727238e-05
-4.885945998e-05
-6.279515245e-05
-8.662011135e-06
-4.019746558e-05
-8.662011781e-06
-4.838351659e-05
6.27240693e-05
-0.0001641419383
0.0001599397262
-0.000319109515
0.0002166683235
-0.0004882997597
0.0002366208961
-0.0006536671071
0.0002309637616
-0.0008030258334
0.0002083545549
-0.0009284442668
0.0001748474005
-0.001024619817
0.0001341037693
-0.001087685392
8.804749534e-05
-0.001114536324
3.763893633e-05
-0.001102602206
-1.633571376e-05
-0.001050286764
-7.277644894e-05
-0.0009575641927
-0.0001293875026
-0.000827163992
-0.0001823755784
-0.0006658785158
-0.0002260059639
-0.0004858214353
-0.0002526542562
-0.0003051688165
-0.0002535499075
-0.000147435311
-0.0002205286993
-3.88432877e-05
-0.000148789517
-4.750528317e-05
-7.461105336e-05
0.0001373351682
-0.0002471434663
0.0003324722416
-0.0004744697968
0.0004439947283
-0.0007225144306
0.0004846655632
-0.0009659525303
0.0004744018725
-0.001186985346
0.0004293873504
-0.001373539944
0.0003614019545
-0.00151729984
0.0002778636169
-0.001612120177
0.0001828677814
-0.001653090049
7.860875179e-05
-0.00163630317
-3.312264444e-05
-0.001559327815
-0.0001497518373
-0.001422329911
-0.0002663854107
-0.001229680378
-0.0003750250865
-0.000991816042
-0.0004638702548
-0.0007268397125
-0.0005176305527
-0.0004610839767
-0.0005193056383
-0.0002276895566
-0.0004539231292
-6.290387843e-05
-0.0003135751702
-0.0001104091805
-9.455746258e-05
0.000231892644
-0.0003129768785
0.0005508916915
-0.0006005509095
0.0007315687906
-0.0009148936039
0.0007990082538
-0.001224608996
0.0007841172471
-0.001507443992
0.0007122223232
-0.001747992126
0.0006019500723
-0.001935322384
0.0004651938759
-0.002061079207
0.0003086246304
-0.002118367658
0.0001358972239
-0.002101545689
-4.994459939e-05
-0.002006827629
-0.000244469877
-0.00183389817
-0.0004393148261
-0.001588027498
-0.0006208957106
-0.001282552163
-0.0007693455649
-0.0009409497394
-0.0008592329747
-0.0005974785086
-0.000862776861
-0.0002952474573
-0.0007561541535
-8.146161486e-05
-0.0005273610114
-0.0001918708385
-0.0001120557149
0.0003439483869
-0.000371534172
0.0008103701548
-0.0007140445118
0.001074079145
-0.001089505717
0.001174469437
-0.001461187916
0.001155799408
-0.001803148204
0.001054182569
-0.002097247441
0.0008960492693
-0.002330242414
0.0006981888044
-0.002491515703
0.0004698978901
-0.002571773143
0.0002161546489
-0.002562865335
-5.885239099e-05
-0.002458517808
-0.0003488173705
-0.00225660448
-0.0006412281082
-0.001961940971
-0.0009155591846
-0.001589752926
-0.0011415336
-0.001168714445
-0.001280271444
-0.0007421140495
-0.001289377243
-0.0003654655602
-0.001132802629
-9.982491158e-05
-0.0007930017236
-0.0002916957673
-0.0001298648417
0.0004738132479
-0.0004309391559
0.001111444445
-0.0008290082199
0.001472148211
-0.001266595303
0.001612056509
-0.001702131773
0.001591335858
-0.002106606147
0.001458656924
-0.002459708668
0.001249151771
-0.00274620057
0.0009846806771
-0.002953131774
0.0006768290665
-0.003068245829
0.0003312686822
-0.003079814328
-4.728388194e-05
-0.002977263018
-0.000451368659
-0.002754487613
-0.0008640035015
-0.002413484434
-0.00125656237
-0.001969507784
-0.001585510256
-0.001456037058
-0.001793742157
-0.0009274229069
-0.001817991401
-0.0004562898808
-0.001603935686
-0.0001237487485
-0.001125542926
-0.000415444501
-0.0001501428218
0.0006239560823
-0.0004973595208
0.001458661108
-0.0009562739943
0.001931062668
-0.001461698954
0.002117481449
-0.001967568072
0.002097204952
-0.002442487512
0.001933576349
-0.002864718375
0.001671382619
-0.003217569388
0.001337531662
-0.003485886519
0.0009451461663
-0.003653892065
0.0004992742102
-0.003705439558
4.263617517e-06
-0.003622453982
-0.0005343542313
-0.003391983164
-0.001094474346
-0.003009137332
-0.001639408243
-0.002485509428
-0.002109138165
-0.001857697827
-0.002421553751
-0.001193442382
-0.002482246875
-0.0005900247594
-0.002207353348
-0.0001601488204
-0.001555418846
-0.0005755933035
-0.0001743909748
0.0007983470617
-0.0005751951842
0.001859465286
-0.001103436663
0.002459304134
-0.001685357101
0.002699401894
-0.002270694543
0.002682542392
-0.002826609951
0.00248949175
-0.003331093855
0.002175866502
-0.003767059832
0.001773497611
-0.004117811139
0.001295897442
-0.004364133809
0.0007455968824
-0.004482266138
0.0001223959523
-0.004447202603
-0.0005694177716
-0.004232464418
-0.001309212554
-0.003820138211
-0.002051734455
-0.003211414112
-0.002717862238
-0.002441363019
-0.003191604842
-0.001592355921
-0.003331253975
-0.0007968694209
-0.003002839839
-0.000218627448
-0.002133660738
-0.0007942207739
-0.0002038617383
0.001002208797
-0.000667727328
0.002323330854
-0.001275492067
0.003067068859
-0.001943485615
0.003367395467
-0.002617639588
0.003356696386
-0.003265003286
0.003136855448
-0.003865023897
0.002775887088
-0.00440196825
0.002310441947
-0.004859042282
0.001752971468
-0.005214144865
0.001100699509
-0.005437133869
0.0003453849855
-0.005490083232
-0.0005164684047
-0.005329145197
-0.001470150578
-0.004914394002
-0.002466485608
-0.004225584559
-0.003406671651
-0.00328631426
-0.004130875173
-0.002190737979
-0.00442683025
-0.001118287844
-0.004075289959
-0.0003132857403
-0.002938662845
-0.001107506584
-0.0002400637718
0.001242272563
-0.0007780641026
0.002861331173
-0.001475853725
0.003764858464
-0.002238047652
0.004129589412
-0.003007386996
0.004126035751
-0.003752651264
0.003882119723
-0.004457128312
0.003480364123
-0.005109022782
0.002962336423
-0.005693972963
0.00233792168
-0.006189103316
0.001595829933
-0.006558271191
0.0007145529097
-0.006749934188
-0.0003248053952
-0.006697117116
-0.001522967637
-0.00632795932
-0.002835643385
-0.005585886375
-0.00414874464
-0.004465848106
-0.0052509135
-0.003061770216
-0.005830908141
-0.001606692405
-0.005530367769
-0.000464175125
-0.004081180165
-0.001571681689
-0.0002855116456
0.001527784195
-0.0009104342672
0.003486253795
-0.001707591034
0.00456201521
-0.002567606017
0.00498960441
-0.003431030166
0.00498945992
-0.004270711155
0.00472180073
-0.005076611523
0.004286264509
-0.005844010913
0.003729735838
-0.00656444545
0.003058356258
-0.007217936306
0.002249320826
-0.007765544145
0.001262160762
-0.008144335479
5.398593543e-05
-0.008261668984
-0.001405634124
-0.00800718747
-0.00309012491
-0.007272728145
-0.004883204004
-0.00600058315
-0.006523058453
-0.004256939118
-0.007574552139
-0.002316178821
-0.007471128078
-0.0006975470809
-0.005699811876
-0.002269228712
-0.0003449981391
0.001872782297
-0.001072070073
0.004213325734
-0.00197488129
0.005464826423
-0.002927503062
0.00594222622
-0.003870050808
0.005932007697
-0.004782240108
0.005633990046
-0.005663547347
0.005167571763
-0.006519348919
0.004585537416
-0.007350841201
0.003889848563
-0.008145928619
0.00304440825
-0.008869532123
0.001985764275
-0.009452254337
0.0006367081806
-0.009787165722
-0.001070722722
-0.009725782278
-0.003151508409
-0.009101164886
-0.005507821429
-0.007777996175
-0.007846227115
-0.005748520218
-0.009604028107
-0.003277384551
-0.009942263825
-0.001043385197
-0.007933811184
-0.003312613977
-0.0004279128898
0.002300695144
-0.001275997123
0.005061409988
-0.002284375403
0.006473204731
-0.003308747746
0.006966598622
-0.00429238346
0.006915643437
-0.005225383939
0.006566990511
-0.006119111099
0.006061298903
-0.006990968207
0.005457394526
-0.007854671565
0.004753551945
-0.008711424919
0.003901161601
-0.009539303803
0.002813643153
-0.01028018362
0.001377588011
-0.01082690347
-0.0005240028831
-0.0110170043
-0.002961407625
-0.01063644709
-0.005888378613
-0.009459307191
-0.009023367011
-0.007346646846
-0.01171668844
-0.004449277483
-0.0128396332
-0.001526450521
-0.01085663813
-0.004839064441
-0.0005524376937
0.002853132821
-0.001544780563
0.006053752904
-0.002645060358
0.007573484551
-0.003692894956
0.008014433247
-0.004643020191
0.007865768667
-0.005501596589
0.007425566888
-0.00629424971
0.006853952003
-0.007051079701
0.006214224517
-0.007799482995
0.005501955246
-0.008558223283
0.004659901892
-0.009329117192
0.003584537057
-0.01008488724
0.002133358041
-0.01074861364
0.0001397234659
-0.01118854707
-0.002521474215
-0.01118174216
-0.005895183478
-0.01042964535
-0.009775463874
-0.008620113431
-0.01352622029
-0.005647343875
-0.01581240265
-0.002143098627
-0.01436088346
-0.006982163083
-0.0007534039713
0.0036065368
-0.001913698721
0.007214047695
-0.003060495321
0.008720281135
-0.004032935166
0.008986873073
-0.004816758944
0.008649592431
-0.005445617121
0.008054425043
-0.00596396754
0.007372302413
-0.006415261904
0.006665518874
-0.006839998867
0.005926692188
-0.00727558334
0.005095486345
-0.007754146286
0.004063099997
-0.008295241937
0.002674453676
-0.008894044826
0.0007385263369
-0.009483874846
-0.001931644125
-0.009909982304
-0.005469076012
-0.009865764183
-0.009819682069
-0.008881404116
-0.01451058036
-0.006471933383
-0.01822187338
-0.002817388058
-0.01801542866
-0.009799551122
-0.001091029803
0.004697566598
-0.002422216825
0.008545234719
-0.003492117025
0.009790181306
-0.004191281048
0.009686037062
-0.00457966899
0.009037980357
-0.004741642199
0.008216398257
-0.004750421305
0.007381081532
-0.004665272732
0.006580370273
-0.004538036488
0.005799455879
-0.004420963791
0.004978413606
-0.004373127653
0.004015263864
-0.004462840126
0.00276416615
-0.00476306628
0.001038752489
-0.00532187465
-0.001372835704
-0.00611570166
-0.004675249065
-0.006942360016
-0.008993023686
-0.007289085985
-0.0141638544
-0.006284092363
-0.01922686703
-0.003321347447
-0.02097817367
-0.01312089861
-0.001655447843
0.006353014405
-0.003035386455
0.009925173311
-0.003696279854
0.01045107468
-0.003722109822
0.009711867022
-0.003328931779
0.008644802316
-0.002684827049
0.007572293526
-0.00190081085
0.006597065308
-0.001050591315
0.005730150698
-0.0001905595047
0.004939424047
0.0006232195154
0.004164634611
0.001320409609
0.003318073799
0.001803951582
0.002280624155
0.001942916255
0.0008997877744
0.001584068978
-0.001013988456
0.0005873233434
-0.003678503393
-0.001059213019
-0.007346487205
-0.003013972708
-0.0122090948
-0.004243692825
-0.01799714675
-0.003197647667
-0.02202421878
-0.01631854634
-0.002405338566
0.008758352934
-0.003232260226
0.01075209496
-0.002630369246
0.009849183731
-0.001228080186
0.008309577988
0.0005114154467
0.006905306679
0.002348843801
0.005734865128
0.004165075191
0.00478083387
0.005900686723
0.003994539158
0.007519220295
0.003320890513
0.008983005721
0.002700849215
0.01023435297
0.002066726526
0.01117844537
0.001336531757
0.01166689488
0.0004113383407
0.01149806573
-0.0008451593988
0.0104116773
-0.002592114946
0.008151650352
-0.005086460238
0.004668671254
-0.008726115763
0.0006773729812
-0.0140058485
-0.001654722135
-0.01969212359
-0.01797326853
-0.0020550225
0.01081337541
4.398310158e-05
0.008653089414
0.003730812962
0.006162353925
0.007395610798
0.004644780181
0.01077523631
0.003525681172
0.01379199916
0.002718102276
0.01644527587
0.002127557184
0.01876298541
0.001676829632
0.02077123307
0.001312642846
0.02247778928
0.0009942929711
0.0238596728
0.0006848429983
0.02484792305
0.000348281523
0.02530918061
-4.991920234e-05
0.02506870242
-0.000604681327
0.02382625448
-0.001349666911
0.02118446123
-0.002444667098
0.01666971144
-0.004211365933
0.009958673483
-0.007294810509
0.002578449027
-0.01231189915
-0.01539481954
0.01081337544
0.01946646488
0.0256288188
0.03027359896
0.03379928013
0.03651738243
0.03864493962
0.04032176925
0.04163441212
0.04262870511
0.04331354808
0.04366182962
0.04361191044
0.0430072291
0.04165756228
0.03921289516
0.0350015292
0.02770671862
0.01539481954
)
;

boundaryField
{
    movingWall
    {
        type            calculated;
        value           uniform 0;
    }
    fixedWalls
    {
        type            calculated;
        value           uniform 0;
    }
    frontAndBack
    {
        type            empty;
    }
}


// ************************************************************************* //
