/*--------------------------------*- C++ -*----------------------------------*\
  =========                 |
  \\      /  F ield         | OpenFOAM: The Open Source CFD Toolbox
   \\    /   O peration     | Website:  https://openfoam.org
    \\  /    A nd           | Version:  13
     \\/     M anipulation  |
\*---------------------------------------------------------------------------*/
FoamFile
{
    format      ascii;
    class       surfaceScalarField;
    location    "2";
    object      phi_0;
}
// * * * * * * * * * * * * * * * * * * * * * * * * * * * * * * * * * * * * * //

dimensions      [0 3 -1 0 0 0 0];

internalField   nonuniform List<scalar> 
760
(
-1.435917084e-05
1.435903263e-05
-5.854756395e-05
4.418841437e-05
-0.0001202283387
6.168082029e-05
-0.0001876104911
6.738222214e-05
-0.0002531366264
6.552619794e-05
-0.0003120517864
5.891519155e-05
-0.0003614031561
4.935137619e-05
-0.0003992704041
3.786723238e-05
-0.0004242197343
2.494930554e-05
-0.0004350123586
1.079259709e-05
-0.0004306589291
-4.353471709e-06
-0.0004102878618
-2.037110938e-05
-0.0003737466385
-3.654127798e-05
-0.0003219105069
-5.183619061e-05
-0.0002573172401
-6.459329838e-05
-0.0001848045729
-7.251266111e-05
-0.0001119227323
-7.288182309e-05
-4.90641063e-05
-6.285862676e-05
-8.751879781e-06
-4.031224282e-05
-8.751880158e-06
-4.838459726e-05
6.274365291e-05
-0.0001641026034
0.0001599064874
-0.0003189634888
0.0002165417316
-0.0004879792108
0.0002363979457
-0.0006531202418
0.0002306672152
-0.0008022302038
0.0002080251057
-0.0009274127499
0.000174533859
-0.00102340022
0.0001338546507
-0.001086356276
8.790534147e-05
-0.001113200035
3.763639004e-05
-0.001101373447
-1.61800055e-05
-0.001049279331
-7.246516219e-05
-0.0009568700818
-0.0001289504559
-0.0008268311563
-0.0001818750377
-0.000665891161
-0.0002255332241
-0.0004860903295
-0.0002523134603
-0.0003055443309
-0.0002534278368
-0.000147750638
-0.0002206523604
-3.898561283e-05
-0.0001490772957
-4.773747658e-05
-7.456663586e-05
0.0001373103346
-0.000246958342
0.0003322982969
-0.0004740392138
0.0004436226781
-0.0007217412879
0.0004841000533
-0.0009647667185
0.0004736926572
-0.001185360577
0.0004286189447
-0.001371502298
0.0003606755349
-0.00151492809
0.0002772803937
-0.001609540191
0.0001825173908
-0.001650464619
7.856076158e-05
-0.001633816549
-3.282812788e-05
-0.00155716401
-0.0001491177336
-0.001420643638
-0.000265470833
-0.001228564244
-0.0003739544059
-0.0009912715895
-0.0004628258334
-0.0007267640903
-0.000516820926
-0.0004612858077
-0.0005189061143
-0.000227942447
-0.0004539957314
-6.303511462e-05
-0.0003139846033
-0.0001107726105
-9.445482894e-05
0.0002317651766
-0.0003126026134
0.0005504461155
-0.0005997565596
0.0007307766556
-0.0009135542719
0.0007978977615
-0.001222640112
0.0007827784799
-0.001504818163
0.0007107969715
-0.001744748453
0.0006006058088
-0.001931567471
0.0004640994134
-0.00205698177
0.0003079317159
-0.002114147722
0.000135726736
-0.002097457112
-4.951872411e-05
-0.0020031317
-0.0002434431251
-0.001830827453
-0.0004377750363
-0.001585743071
-0.0006190387389
-0.001281103298
-0.0007674655822
-0.0009402502121
-0.0008576740108
-0.0005973162935
-0.0008618400256
-0.0002953401653
-0.0007559718332
-8.155571671e-05
-0.0005277690513
-0.000192328371
-0.0001118923548
0.0003436575597
-0.0003709607911
0.0008095145582
-0.000712862961
0.001072678841
-0.001087559811
0.001172594589
-0.001458375185
0.001153593816
-0.00179943456
0.001051856304
-0.002092676339
0.0008938475477
-0.002324937227
0.0006963602563
-0.002485676802
0.0004686712615
-0.002565669815
0.0002157197345
-0.00255682024
-5.836828308e-05
-0.002452879503
-0.0003473838289
-0.002251706434
-0.0006389480578
-0.001958048373
-0.0009126967654
-0.001587005967
-0.001138507978
-0.001167083898
-0.001277596069
-0.000741391089
-0.001287532823
-0.0003653071752
-0.001132055734
-9.986259767e-05
-0.0007932136928
-0.0002921909858
-0.0001296475181
0.0004733050971
-0.0004301836334
0.00111005065
-0.0008274639592
0.001469959168
-0.001264068104
0.001609198722
-0.001698490678
0.001588016371
-0.002101795483
0.00145516109
-0.002453757125
0.00124580917
-0.002739226338
0.00098182944
-0.002945345102
0.0006747899974
-0.003059948297
0.0003303229075
-0.003071390573
-4.69259971e-05
-0.00296915896
-0.000449615421
-0.002747168036
-0.0008609389692
-0.002407370198
-0.00125249461
-0.001964896058
-0.001580982124
-0.001453020776
-0.001789471339
-0.0009258389263
-0.001814714679
-0.0004557351673
-0.001602159524
-0.0001236937465
-0.001125255184
-0.0004158847169
-0.000149884581
0.0006231896908
-0.0004964593615
0.001456625394
-0.0009544293607
0.00192792915
-0.001458669055
0.002113438397
-0.001963177327
0.002092524618
-0.002436635438
0.001928619186
-0.00285738921
0.001666562928
-0.003208841758
0.001333281959
-0.00347594516
0.0009418933675
-0.00364304014
0.0004974178696
-0.003694109425
4.143294156e-06
-0.003611190686
-0.0005325341551
-0.003381418307
-0.001090711375
-0.002999917055
-0.001633995903
-0.002478185079
-0.002102714104
-0.001852588782
-0.002415067629
-0.001190509538
-0.002476793951
-0.0005888232945
-0.002203845807
-0.0001599314208
-0.001554147037
-0.0005758161195
-0.0001741105257
0.0007973002211
-0.0005742067913
0.001856721628
-0.001101389744
0.002455112091
-0.001681956076
0.002694004736
-0.002265700668
0.002676269209
-0.00281984974
0.002482768251
-0.003322469799
0.002169182964
-0.003756566172
0.001767378303
-0.004105558354
0.001290885518
-0.004350381411
0.0007422409279
-0.004467452964
0.000121214854
-0.004431974947
-0.0005680121766
-0.004217651676
-0.001305034667
-0.003806690822
-0.002044956762
-0.003200259817
-0.002709145083
-0.002433191375
-0.003182136068
-0.001587375562
-0.003322609767
-0.000794644892
-0.002996576467
-0.0002181363061
-0.002130655542
-0.0007939524485
-0.000203585143
0.001000885361
-0.0006667306292
0.002319867093
-0.001273386321
0.00306176777
-0.001939916356
0.003360534795
-0.00261228933
0.003348642204
-0.003257598903
0.003128077824
-0.003855348255
0.00276693229
-0.004389882756
0.002301912786
-0.004844527223
0.001745529979
-0.005197358378
0.001095072127
-0.005418481919
0.0003423384255
-0.005470280646
-0.0005162134448
-0.00530923292
-0.001466082383
-0.004895687742
-0.002458501898
-0.004209498792
-0.003395334002
-0.00327405717
-0.004117577722
-0.002182920421
-0.00441374651
-0.001114584925
-0.004064911947
-0.0003123770956
-0.002932863376
-0.001106329615
-0.0002398272404
0.001240712596
-0.000777171136
0.002857210977
-0.001473895922
0.003758492538
-0.002234617536
0.004121256428
-0.00300208448
0.00411610917
-0.003745090408
0.003871083758
-0.004446949112
0.003468790981
-0.005095920013
0.002950883693
-0.005677753448
0.002327363445
-0.006169774513
0.001587093264
-0.006536152387
0.00070871635
-0.006725769598
-0.0003265962215
-0.006672124891
-0.001519727078
-0.006303804567
-0.002826822204
-0.005564483595
-0.004134655018
-0.004448984978
-0.005233076398
-0.003050584541
-0.005812146948
-0.001601131245
-0.005514365243
-0.0004627076355
-0.004071287028
-0.001569037231
-0.0002853636146
0.001526076197
-0.0009097962357
0.003481643599
-0.001706067659
0.004554763941
-0.002564760273
0.004979949058
-0.003426398782
0.004977747699
-0.004263811887
0.004708496883
-0.005066954247
0.004271933358
-0.005831130608
0.003715060078
-0.006547972897
0.003044205775
-0.00719771257
0.002236832974
-0.007741759765
0.001252763558
-0.008117767977
4.941198546e-05
-0.008233533849
-0.001403961197
-0.007979346133
-0.003081009931
-0.007247400684
-0.004866600505
-0.00597997519
-0.00650050185
-0.004242698712
-0.007549423392
-0.002308725471
-0.007448338497
-0.0006954418132
-0.005684570657
-0.002264478986
-0.0003449976793
0.001871073839
-0.001071873969
0.004208519893
-0.001974156723
0.005457046692
-0.002925831502
0.005931623874
-0.003866959083
0.005918875311
-0.004777210736
0.005618748553
-0.005656029501
0.005150752139
-0.006508794042
0.004567824625
-0.007336780638
0.003872192395
-0.008128095762
0.003028148105
-0.008848020087
0.001972687892
-0.009427572989
0.0006289649178
-0.009760536028
-0.001070998141
-0.009698870503
-0.003142675511
-0.00907600446
-0.005489466581
-0.00775672535
-0.007819780911
-0.005733017574
-0.009573131179
-0.003268685898
-0.009912670254
-0.001040704461
-0.007912552047
-0.003305183515
-0.0004281201705
0.002299193967
-0.001276439275
0.005056839019
-0.002284847908
0.006465455353
-0.003308924907
0.006955700932
-0.004291870505
0.006901820936
-0.005223732838
0.00655061087
-0.006115831481
0.006042850762
-0.006985559886
0.005437553032
-0.007846692808
0.004733325341
-0.008700594672
0.003882049965
-0.009525616161
0.002797709375
-0.0102639808
0.00136732957
-0.01080891337
-0.000526065578
-0.01099823281
-0.002953356122
-0.01061809728
-0.005869602085
-0.00944274654
-0.008995131645
-0.007333422741
-0.01168245497
-0.004440943143
-0.01280514986
-0.001523500941
-0.01082999424
-0.004828684397
-0.0005528907667
0.002852084717
-0.001546000561
0.00604994886
-0.002647044267
0.007566499085
-0.003695499792
0.008004156484
-0.004646034116
0.007852355256
-0.005504760224
0.007409336958
-0.006297266654
0.00683535717
-0.00705363988
0.00619392626
-0.007801303765
0.005480989233
-0.008559098479
0.004639844682
-0.009328952752
0.003567563642
-0.01008368895
0.002122065746
-0.01074639571
0.0001366411396
-0.01118529957
-0.002514452285
-0.01117731692
-0.005877584691
-0.01042401804
-0.00974843058
-0.008613815787
-0.01349265715
-0.005641934471
-0.01577703108
-0.002140549756
-0.01433137903
-0.006969234169
-0.0007540766773
0.003606161403
-0.001915659793
0.007211532017
-0.00306400362
0.008714842895
-0.004038108516
0.008978261361
-0.004823648442
0.008637895167
-0.005454229728
0.00803991822
-0.005974274161
0.007355401594
-0.006427204836
0.006646856928
-0.006853491664
0.00590727604
-0.0072904911
0.005076844098
-0.007770241887
0.004047314422
-0.008312112432
0.002663936275
-0.008911000947
0.0007355296359
-0.009499805326
-0.001925647836
-0.009923415336
-0.005453974672
-0.009875172879
-0.009796673113
-0.008885874211
-0.01448195582
-0.006472227513
-0.01819067777
-0.002816264101
-0.01798734232
-0.00978549825
-0.001091775784
0.004697937182
-0.002424545465
0.0085443017
-0.003496563835
0.009786861237
-0.004198254484
0.009679951975
-0.004589501224
0.00902914189
-0.004754608199
0.008205025202
-0.004766742741
0.007367536151
-0.00468510648
0.006565220638
-0.004561432023
0.005783601519
-0.004447778531
0.004963190563
-0.004402935203
0.004002471098
-0.004494817378
0.00275581845
-0.004795931813
0.00103664407
-0.00535385401
-0.001367725588
-0.006144565046
-0.004663263701
-0.006965672654
-0.008975565478
-0.00730469916
-0.01414292932
-0.006291441538
-0.01920393541
-0.00332266938
-0.02095611457
-0.01310816768
-0.001655970904
0.006353908048
-0.003037274567
0.009925605343
-0.00370028401
0.01044987066
-0.003728893016
0.009708560973
-0.003339074287
0.008639323163
-0.002698834652
0.007564785565
-0.001919109477
0.006587810951
-0.001073495633
0.005719606753
-0.0002181922519
0.004928298115
0.0005910316614
0.004153966676
0.001284301812
0.003309200977
0.001765067415
0.002275052825
0.001902908754
0.0008988026877
0.001544979648
-0.001009796511
0.0005513724652
-0.003669656482
-0.001089442671
-0.007334750223
-0.00303625743
-0.01219611465
-0.004256370291
-0.01798382239
-0.003201517483
-0.02201096733
-0.01630968522
-0.002405310321
0.008759218332
-0.003232767993
0.010753063
-0.002632226079
0.009849328771
-0.001232104696
0.008308439616
0.000504442975
0.006902775488
0.002338220569
0.005731007927
0.004150191492
0.00477583998
0.005881083247
0.00398871499
0.007494685841
0.00331469556
0.008953720678
0.002694931868
0.01020101924
0.002061902387
0.01114237268
0.00133369939
0.01162993208
0.0004112433648
0.01146233775
-0.0008422022777
0.01037926668
-0.002586585384
0.00812425912
-0.005079742649
0.004647843286
-0.008719698876
0.0006643964933
-0.01400037562
-0.001659856048
-0.01968671471
-0.01796954132
-0.002054529991
0.0108137483
4.485132268e-05
0.008653681746
0.003731505074
0.006162675075
0.007395303885
0.004644640833
0.01077307937
0.003525000009
0.01378718903
0.002716898267
0.01643711473
0.002125914304
0.0187509462
0.001674883534
0.02075505503
0.001310586714
0.02245760186
0.0009923850165
0.02383611286
0.0006833913762
0.02482220698
0.0003476052773
0.02528298649
-4.953612264e-05
0.02504401726
-0.0006032331647
0.02380482986
-0.001347397891
0.02116731411
-0.002442227003
0.01665709527
-0.004209479999
0.009950551121
-0.007293831444
0.002575207533
-0.01231137114
-0.01539433383
0.01081374833
0.0194674301
0.02563010517
0.03027474598
0.03379974599
0.03651664428
0.03864255859
0.04031744212
0.04162802886
0.0426204139
0.04330380524
0.04365141054
0.04360187444
0.04299864127
0.04165124346
0.03920901644
0.03499953642
0.0277057049
0.01539433383
)
;

boundaryField
{
    movingWall
    {
        type            calculated;
        value           uniform 0;
    }
    fixedWalls
    {
        type            calculated;
        value           uniform 0;
    }
    frontAndBack
    {
        type            empty;
    }
}


// ************************************************************************* //
