/*--------------------------------*- C++ -*----------------------------------*\
  =========                 |
  \\      /  F ield         | OpenFOAM: The Open Source CFD Toolbox
   \\    /   O peration     | Website:  https://openfoam.org
    \\  /    A nd           | Version:  13
     \\/     M anipulation  |
\*---------------------------------------------------------------------------*/
FoamFile
{
    format      ascii;
    class       volVectorField;
    location    "2";
    object      U_0;
}
// * * * * * * * * * * * * * * * * * * * * * * * * * * * * * * * * * * * * * //

dimensions      [0 1 -1 0 0 0 0];

internalField   nonuniform List<vector> 
400
(
(-8.716085305e-05 8.716035393e-05 0)
(-0.0006413277593 0.0001501447542 0)
(-0.001345563602 0.0001491438888 0)
(-0.002056706129 0.000139758397 0)
(-0.002709627878 0.0001254917936 0)
(-0.003283209256 0.0001075266018 0)
(-0.003761107874 8.662051598e-05 0)
(-0.004130532453 6.345849819e-05 0)
(-0.004382010888 3.870465099e-05 0)
(-0.004509298859 1.300575769e-05 0)
(-0.004509300348 -1.300582338e-05 0)
(-0.004382013984 -3.870452027e-05 0)
(-0.004130537413 -6.345822215e-05 0)
(-0.003761113522 -8.6620012e-05 0)
(-0.003283213108 -0.0001075263438 0)
(-0.002709631399 -0.0001254915236 0)
(-0.002056708856 -0.0001397575879 0)
(-0.00134556346 -0.0001491435755 0)
(-0.0006413244703 -0.0001501458226 0)
(-8.715948898e-05 -8.716137686e-05 0)
(-0.0001540537925 0.0006509701305 0)
(-0.00252758884 0.002502562755 0)
(-0.005319496833 0.002425373703 0)
(-0.008161406617 0.002261072617 0)
(-0.01075652817 0.002027575431 0)
(-0.01303277971 0.001736415114 0)
(-0.01492800074 0.001398365422 0)
(-0.0163923772 0.001024207468 0)
(-0.01738889905 0.0006245849541 0)
(-0.01789319387 0.0002098607556 0)
(-0.01789319894 -0.000209859576 0)
(-0.01738890986 -0.0006245819678 0)
(-0.01639239519 -0.001024204758 0)
(-0.01492802296 -0.001398360576 0)
(-0.01303279574 -0.001736409478 0)
(-0.01075653981 -0.002027571912 0)
(-0.008161417137 -0.002261066791 0)
(-0.005319503631 -0.002425367274 0)
(-0.002527584163 -0.002502566038 0)
(-0.0001540521318 -0.0006509733728 0)
(-0.0001651321629 0.001404277314 0)
(-0.002644334585 0.005416922048 0)
(-0.005520117644 0.005207887691 0)
(-0.008466253082 0.004844380465 0)
(-0.01115454274 0.004340022215 0)
(-0.01350927493 0.003714400496 0)
(-0.01546708827 0.002989671636 0)
(-0.0169779305 0.002188773879 0)
(-0.01800505895 0.001334347565 0)
(-0.01852451399 0.0004482704803 0)
(-0.01852451802 -0.0004482662466 0)
(-0.01800506958 -0.001334341555 0)
(-0.01697794811 -0.002188768846 0)
(-0.01546710751 -0.002989664884 0)
(-0.01350929138 -0.003714391158 0)
(-0.01115455638 -0.004340015547 0)
(-0.008466260883 -0.004844373291 0)
(-0.005520126204 -0.005207877598 0)
(-0.002644340839 -0.005416915019 0)
(-0.0001651321964 -0.001404277863 0)
(-0.0001774646288 0.002247810699 0)
(-0.002828538085 0.00870185536 0)
(-0.005891634639 0.008362789118 0)
(-0.009028738419 0.007772750067 0)
(-0.01188587056 0.006957102764 0)
(-0.01438241431 0.005948614369 0)
(-0.01645285555 0.004783725487 0)
(-0.01804689228 0.003499604228 0)
(-0.01912857111 0.002132318129 0)
(-0.01967496593 0.0007161451464 0)
(-0.01967496923 -0.0007161373476 0)
(-0.01912858113 -0.002132312063 0)
(-0.01804690955 -0.003499596465 0)
(-0.0164528735 -0.004783713174 0)
(-0.01438243046 -0.005948602167 0)
(-0.01188588441 -0.006957093001 0)
(-0.009028745559 -0.007772742494 0)
(-0.005891641621 -0.008362781327 0)
(-0.002828545686 -0.008701844989 0)
(-0.0001774653206 -0.002247808252 0)
(-0.0001946302234 0.003164253282 0)
(-0.003099294146 0.01225260166 0)
(-0.006448283869 0.01176851619 0)
(-0.009870703494 0.01092660812 0)
(-0.01297720873 0.009766932838 0)
(-0.01568100926 0.008339159218 0)
(-0.01791433447 0.006696963862 0)
(-0.01962749483 0.004893575235 0)
(-0.02078662824 0.00297916197 0)
(-0.02137105814 0.001000118046 0)
(-0.02137106392 -0.001000107422 0)
(-0.02078663892 -0.002979152247 0)
(-0.01962750622 -0.00489356388 0)
(-0.01791434931 -0.006696948543 0)
(-0.01568102831 -0.008339146656 0)
(-0.01297722705 -0.00976692101 0)
(-0.009870713319 -0.01092659997 0)
(-0.006448289676 -0.01176851025 0)
(-0.003099298623 -0.01225259492 0)
(-0.0001946304661 -0.003164251356 0)
(-0.0002180499812 0.004181305888 0)
(-0.003472248248 0.01618601601 0)
(-0.007215418969 0.01553172726 0)
(-0.01102742777 0.01439795858 0)
(-0.01446989555 0.01284465418 0)
(-0.01744857444 0.01094397835 0)
(-0.01989436748 0.008771293904 0)
(-0.02176045358 0.006398510096 0)
(-0.02301768981 0.003890613019 0)
(-0.02364985233 0.001305263306 0)
(-0.02364985654 -0.001305251328 0)
(-0.02301769913 -0.003890596744 0)
(-0.0217604653 -0.006398495961 0)
(-0.01989438427 -0.0087712816 0)
(-0.01744859414 -0.01094396764 0)
(-0.01446991387 -0.01284464262 0)
(-0.01102744084 -0.01439794784 0)
(-0.007215427404 -0.01553172145 0)
(-0.00347225428 -0.01618601007 0)
(-0.0002180504814 -0.004181304561 0)
(-0.000249005709 0.005333890781 0)
(-0.003967872778 0.02063627724 0)
(-0.008231124599 0.0197736278 0)
(-0.01255097939 0.01828821649 0)
(-0.01642319293 0.01626928277 0)
(-0.0197455221 0.01382048825 0)
(-0.02245038678 0.01104551799 0)
(-0.0244984041 0.008038427925 0)
(-0.02586990093 0.004879449163 0)
(-0.02655685761 0.001635556871 0)
(-0.0265568591 -0.001635540263 0)
(-0.02586990948 -0.00487943216 0)
(-0.0244984195 -0.008038416103 0)
(-0.02245040511 -0.01104551072 0)
(-0.01974554195 -0.01382047864 0)
(-0.01642321128 -0.01626927344 0)
(-0.01255099504 -0.01828820482 0)
(-0.008231135262 -0.0197736206 0)
(-0.003967877893 -0.02063627131 0)
(-0.0002490061548 -0.005333889087 0)
(-0.000289129136 0.006665464749 0)
(-0.004616083809 0.02576566637 0)
(-0.009551130368 0.02463644664 0)
(-0.01451578166 0.02271056778 0)
(-0.01891893311 0.02012274278 0)
(-0.02265178028 0.01702248098 0)
(-0.02565465456 0.01355142816 0)
(-0.02790400906 0.009829976409 0)
(-0.02939763568 0.005953056008 0)
(-0.03014173488 0.001993004122 0)
(-0.0301417387 -0.00199299256 0)
(-0.02939764981 -0.005953046424 0)
(-0.02790403054 -0.009829966642 0)
(-0.02565467361 -0.01355142236 0)
(-0.02265179799 -0.01702247512 0)
(-0.01891894946 -0.0201227384 0)
(-0.01451579693 -0.02271056173 0)
(-0.009551144608 -0.02463644052 0)
(-0.004616090438 -0.02576566235 0)
(-0.0002891294689 -0.006665463787 0)
(-0.0003405613324 0.008232061517 0)
(-0.005461933635 0.03177846841 0)
(-0.01125691502 0.03029163682 0)
(-0.01702700663 0.02779162277 0)
(-0.02206756418 0.02448636943 0)
(-0.02626906401 0.02059377495 0)
(-0.02959256125 0.01630681869 0)
(-0.03204493297 0.01177646907 0)
(-0.03365420946 0.007109529181 0)
(-0.03444988699 0.002376312759 0)
(-0.03444989047 -0.002376313315 0)
(-0.03365421983 -0.007109529345 0)
(-0.03204495219 -0.01177646573 0)
(-0.02959258354 -0.01630681555 0)
(-0.02626908533 -0.02059377333 0)
(-0.02206758239 -0.02448636664 0)
(-0.01702702061 -0.02779162182 0)
(-0.01125692777 -0.03029163439 0)
(-0.005461941133 -0.03177846396 0)
(-0.0003405618573 -0.008232060244 0)
(-0.0004058944889 0.01010936517 0)
(-0.00657481236 0.03894165603 0)
(-0.01346822562 0.03695005202 0)
(-0.02023214636 0.0336705937 0)
(-0.02601448618 0.02943236914 0)
(-0.03072034199 0.02455628534 0)
(-0.03435567945 0.01930372796 0)
(-0.03698198996 0.01385850908 0)
(-0.03867688933 0.008331767415 0)
(-0.03950599845 0.002778888091 0)
(-0.03950600189 -0.002778893883 0)
(-0.03867689958 -0.008331770117 0)
(-0.03698200817 -0.01385851117 0)
(-0.03435570027 -0.0193037294 0)
(-0.03072036009 -0.02455628886 0)
(-0.02601450323 -0.0294323693 0)
(-0.02023216205 -0.03367059403 0)
(-0.0134682364 -0.03695005182 0)
(-0.006574816459 -0.03894165287 0)
(-0.0004058946981 -0.01010936427 0)
(-0.000487527616 0.01240495997 0)
(-0.008064150278 0.04761648806 0)
(-0.01636145642 0.04487324708 0)
(-0.02433459285 0.04049192142 0)
(-0.030942421 0.0350055038 0)
(-0.03613993847 0.02888874287 0)
(-0.04002186024 0.02248956519 0)
(-0.04274251835 0.01602006876 0)
(-0.04445645208 0.009579182171 0)
(-0.04528192595 0.003186089722 0)
(-0.04528192634 -0.003186096715 0)
(-0.04445645875 -0.009579188503 0)
(-0.04274253634 -0.01602007376 0)
(-0.04002188398 -0.02248956823 0)
(-0.03613995854 -0.0288887481 0)
(-0.03094243605 -0.0350055103 0)
(-0.02433460649 -0.04049192579 0)
(-0.0163614657 -0.0448732488 0)
(-0.008064154476 -0.04761648849 0)
(-0.0004875280565 -0.01240496071 0)
(-0.0005852183518 0.01528036944 0)
(-0.01010656992 0.05830634148 0)
(-0.02019383883 0.05438128089 0)
(-0.02960264144 0.04838197587 0)
(-0.03705707923 0.04118624324 0)
(-0.0426379664 0.03349038564 0)
(-0.04660496674 0.02573847901 0)
(-0.04926187639 0.01814929407 0)
(-0.05087492582 0.01077708957 0)
(-0.05163313994 0.003571888273 0)
(-0.05163314272 -0.003571895424 0)
(-0.05087493408 -0.01077709838 0)
(-0.0492618913 -0.01814930424 0)
(-0.04660498778 -0.02573848684 0)
(-0.04263798795 -0.03349038956 0)
(-0.03705709543 -0.04118624932 0)
(-0.02960265235 -0.0483819835 0)
(-0.02019384567 -0.05438128785 0)
(-0.01010657519 -0.05830634701 0)
(-0.0005852191898 -0.01528037067 0)
(-0.0006882819073 0.01899264084 0)
(-0.01299288907 0.0717253799 0)
(-0.02532625183 0.06584151438 0)
(-0.0363511494 0.05738911945 0)
(-0.04452181561 0.04782004588 0)
(-0.05020006879 0.03812210734 0)
(-0.0539353573 0.02881116952 0)
(-0.05625626689 0.02005491267 0)
(-0.05757680783 0.01180505605 0)
(-0.05817018623 0.003895443168 0)
(-0.05817018828 -0.003895452324 0)
(-0.05757681751 -0.01180506481 0)
(-0.05625628387 -0.02005492424 0)
(-0.05393537477 -0.02881117986 0)
(-0.05020008707 -0.03812211344 0)
(-0.04452183433 -0.04782005098 0)
(-0.03635116388 -0.05738912749 0)
(-0.02532625897 -0.06584152539 0)
(-0.01299289111 -0.07172539079 0)
(-0.000688282164 -0.01899264294 0)
(-0.0007519803048 0.0239773219 0)
(-0.01720849258 0.08888198163 0)
(-0.03221227497 0.07959355604 0)
(-0.04482807411 0.06734375098 0)
(-0.05325431229 0.05448853384 0)
(-0.0584322311 0.04231801066 0)
(-0.06138540425 0.03130525575 0)
(-0.06294704862 0.02144301022 0)
(-0.06369818901 0.01248804883 0)
(-0.06399169343 0.004098993751 0)
(-0.0639916958 -0.004099001085 0)
(-0.06369819966 -0.01248805711 0)
(-0.06294706508 -0.02144301709 0)
(-0.06138541976 -0.03130526215 0)
(-0.05843224736 -0.04231801659 0)
(-0.05325433036 -0.05448853942 0)
(-0.04482809085 -0.06734375775 0)
(-0.03221228459 -0.07959356413 0)
(-0.01720849505 -0.08888199245 0)
(-0.0007519804534 -0.02397732546 0)
(-0.0006256370552 0.0310254115 0)
(-0.02356529245 0.1111210543 0)
(-0.04124096087 0.09569081298 0)
(-0.05481875336 0.07755508659 0)
(-0.06237422 0.06029265922 0)
(-0.06594740622 0.04526967457 0)
(-0.06725270719 0.03260930542 0)
(-0.06746185545 0.02190656212 0)
(-0.06728646263 0.01259817126 0)
(-0.06711466819 0.004109638047 0)
(-0.06711467117 -0.004109642326 0)
(-0.0672864718 -0.01259817623 0)
(-0.06746187047 -0.02190656414 0)
(-0.06725272364 -0.03260930827 0)
(-0.0659474236 -0.0452696801 0)
(-0.06237423946 -0.06029266508 0)
(-0.05481877024 -0.07755509221 0)
(-0.04124097196 -0.09569081966 0)
(-0.02356530032 -0.1111210652 0)
(-0.0006256380919 -0.03102541524 0)
(0.0001777480256 0.04169036955 0)
(-0.0333946454 0.1398771218 0)
(-0.05207688517 0.1131632753 0)
(-0.06447575721 0.08621146427 0)
(-0.06880877582 0.06353826548 0)
(-0.06894701874 0.04571840388 0)
(-0.06739392739 0.03189672968 0)
(-0.06552738271 0.02095186876 0)
(-0.06403435329 0.01187938632 0)
(-0.06322848719 0.003848717985 0)
(-0.06322849023 -0.003848720562 0)
(-0.06403436164 -0.01187938791 0)
(-0.06552739698 -0.02095187009 0)
(-0.0673939463 -0.03189673138 0)
(-0.06894703789 -0.04571840929 0)
(-0.06880879387 -0.06353827038 0)
(-0.06447577464 -0.08621146952 0)
(-0.05207690001 -0.1131632829 0)
(-0.03339465575 -0.1398771323 0)
(0.0001777469695 -0.04169037195 0)
(0.003293024306 0.05929592853 0)
(-0.04872924319 0.1751953232 0)
(-0.06141786588 0.1281556551 0)
(-0.06713626488 0.08936835269 0)
(-0.06395239646 0.06142545274 0)
(-0.05803663581 0.04197087695 0)
(-0.05222403178 0.02823244774 0)
(-0.0475940549 0.01809730472 0)
(-0.04447220718 0.01010921306 0)
(-0.04291508467 0.003252252021 0)
(-0.04291508666 -0.003252253916 0)
(-0.04447221505 -0.010109214 0)
(-0.04759406997 -0.0180973075 0)
(-0.05222405222 -0.02823245057 0)
(-0.05803665626 -0.04197087887 0)
(-0.06395241563 -0.06142545541 0)
(-0.06713628435 -0.08936835663 0)
(-0.06141788212 -0.128155663 0)
(-0.04872925278 -0.1751953286 0)
(0.003293023581 -0.05929592998 0)
(0.0147474418 0.09154662599 0)
(-0.07201350052 0.2096635931 0)
(-0.05599868089 0.1299069296 0)
(-0.04318576909 0.07982035619 0)
(-0.02603227505 0.05017723722 0)
(-0.0112439052 0.03229214277 0)
(-0.0001377118082 0.02089580602 0)
(0.007552478413 0.01307420886 0)
(0.0123458624 0.007201560154 0)
(0.01464135592 0.002301972099 0)
(0.01464135385 -0.002301972125 0)
(0.0123458532 -0.007201562421 0)
(0.007552462312 -0.01307421322 0)
(-0.0001377297865 -0.02089580962 0)
(-0.01124392411 -0.03229214329 0)
(-0.02603229502 -0.05017723916 0)
(-0.04318579167 -0.07982035897 0)
(-0.05599869711 -0.1299069317 0)
(-0.07201350857 -0.2096635951 0)
(0.0147474407 -0.09154662617 0)
(0.05976794921 0.1843492962 0)
(-0.1033584477 0.2623275886 0)
(0.008156412061 0.1139261549 0)
(0.05939829223 0.05534154714 0)
(0.09650975262 0.03015145305 0)
(0.121057533 0.01788631764 0)
(0.1369987181 0.01106585065 0)
(0.1471527844 0.006756449807 0)
(0.1531897331 0.003674080711 0)
(0.1560116335 0.001167904163 0)
(0.1560116293 -0.001167903102 0)
(0.1531897209 -0.003674083417 0)
(0.147152768 -0.00675645183 0)
(0.1369987016 -0.01106585081 0)
(0.1210575142 -0.01788631893 0)
(0.09650973125 -0.03015145503 0)
(0.05939827269 -0.0553415494 0)
(0.008156396605 -0.1139261564 0)
(-0.1033584559 -0.2623275919 0)
(0.05976794884 -0.1843492937 0)
(0.3033158997 0.07335130572 0)
(0.3488252391 0.03819255683 0)
(0.4852044376 0.01304147897 0)
(0.5260890078 0.005091576945 0)
(0.5436326925 0.002364295172 0)
(0.5523989578 0.001274678123 0)
(0.5573331764 0.0007500026927 0)
(0.5602648024 0.0004466666309 0)
(0.5619508852 0.0002400177428 0)
(0.5627273825 7.592875287e-05 0)
(0.562727381 -7.592881564e-05 0)
(0.5619508821 -0.0002400182164 0)
(0.5602647989 -0.0004466667167 0)
(0.557333172 -0.0007500024489 0)
(0.5523989525 -0.001274678379 0)
(0.5436326872 -0.00236429543 0)
(0.5260890022 -0.005091577085 0)
(0.4852044333 -0.01304147988 0)
(0.3488252399 -0.03819255742 0)
(0.303315901 -0.07335130457 0)
)
;

boundaryField
{
    movingWall
    {
        type            calculated;
        value           uniform (1 0 0);
    }
    fixedWalls
    {
        type            calculated;
        value           uniform (0 0 0);
    }
    frontAndBack
    {
        type            empty;
    }
}


// ************************************************************************* //
