/*--------------------------------*- C++ -*----------------------------------*\
  =========                 |
  \\      /  F ield         | OpenFOAM: The Open Source CFD Toolbox
   \\    /   O peration     | Website:  https://openfoam.org
    \\  /    A nd           | Version:  13
     \\/     M anipulation  |
\*---------------------------------------------------------------------------*/
FoamFile
{
    format      ascii;
    class       volVectorField;
    location    "2";
    object      U_0;
}
// * * * * * * * * * * * * * * * * * * * * * * * * * * * * * * * * * * * * * //

dimensions      [0 1 -1 0 0 0 0];

internalField   nonuniform List<vector> 
400
(
(-4.08020672e-05 4.740661286e-05 0)
(-0.0006183937077 0.0003664384132 -7.576630893e-24)
(-0.00168399235 0.0006859515893 0)
(-0.002922480741 0.0009179399667 0)
(-0.004154032096 0.00103699895 -2.194570193e-25)
(-0.005279826358 0.001039964862 2.943529068e-24)
(-0.006242629356 0.0009373880903 2.602307489e-23)
(-0.007009918962 0.0007457929971 4.374080283e-23)
(-0.007560305436 0.00048518841 -5.441281504e-25)
(-0.007875351541 0.0001779771359 -9.346855075e-24)
(-0.007937800693 -0.0001511610588 1.226124962e-23)
(-0.00773015596 -0.0004730864289 -1.175991325e-22)
(-0.007238752386 -0.0007577392933 -1.361173849e-22)
(-0.006462443832 -0.0009727488288 -1.606187419e-22)
(-0.005420952021 -0.001086781142 1.068258024e-23)
(-0.00416842038 -0.001074674095 -1.149676507e-23)
(-0.00280677222 -0.0009245946352 -7.640617348e-22)
(-0.001496005157 -0.0006489740218 0)
(-0.0004440740904 -0.0002977623555 3.01449814e-24)
(9.372229485e-06 1.225705563e-05 -3.789900671e-22)
(-0.0001880537536 0.000740275353 6.917071663e-26)
(-0.001858946479 0.002419839359 7.657338454e-24)
(-0.004531645274 0.003724643484 4.262037577e-26)
(-0.007630032625 0.004478123517 2.069277484e-25)
(-0.01072624133 0.004713110043 -5.811724279e-25)
(-0.01357403378 0.004503435469 -1.544251382e-23)
(-0.0160199099 0.003931598113 2.993511312e-23)
(-0.01797183437 0.003074044082 -4.264815602e-23)
(-0.01936896812 0.001999568843 2.980610755e-23)
(-0.02016302736 0.0007736193058 1.066152298e-23)
(-0.02030939512 -0.0005352216439 -1.337776597e-23)
(-0.01976867605 -0.001846956872 -5.642893479e-25)
(-0.0185155583 -0.003067333719 7.240972952e-23)
(-0.01655506282 -0.004083644752 -5.066531853e-24)
(-0.01394672087 -0.004768444108 1.061499458e-23)
(-0.01083244037 -0.00499185153 -3.751807791e-22)
(-0.007463834363 -0.004646221008 3.961646341e-22)
(-0.004211484326 -0.00368704633 -5.995571978e-24)
(-0.00156665763 -0.002188066707 6.146742631e-24)
(-0.000134244965 -0.0005142454264 0)
(-0.000234461312 0.002082530651 -1.040977329e-25)
(-0.002789090301 0.005698254067 -1.268325557e-24)
(-0.006711624686 0.008182301889 -8.826585795e-24)
(-0.01125201318 0.00946686021 1.3817103e-25)
(-0.01580560845 0.009710645432 -1.357395818e-25)
(-0.02001875917 0.009113115334 7.550947808e-25)
(-0.02365888937 0.007861498821 -2.878316981e-23)
(-0.02657963972 0.00610984091 -2.357019299e-24)
(-0.02868155999 0.003981318753 -3.124923192e-23)
(-0.02988593168 0.001582500168 0)
(-0.03012267125 -0.0009781698881 0)
(-0.02933153846 -0.003573110493 6.137470005e-23)
(-0.0274761485 -0.006038518715 6.672958245e-23)
(-0.0245694202 -0.008166220148 -5.021310858e-24)
(-0.02070802435 -0.009704447079 1.75169784e-22)
(-0.01611123653 -0.01037790813 3.638634608e-22)
(-0.01115300191 -0.009934747292 3.724409686e-22)
(-0.00636316221 -0.008224630554 1.182953872e-23)
(-0.002445689848 -0.005304598736 -5.989792539e-24)
(-0.0001926895989 -0.001646948685 0)
(-0.0002357598887 0.003856577473 2.580777936e-24)
(-0.003488983113 0.009898027454 1.536378757e-24)
(-0.00844373905 0.01378263153 8.639459399e-24)
(-0.01418968265 0.01565333163 0)
(-0.01997433152 0.01585497029 0)
(-0.02535719806 0.01475294919 0)
(-0.03004229172 0.01266443012 -1.040068431e-24)
(-0.03383742271 0.00983346778 1.907817134e-23)
(-0.03660657467 0.006441098931 0)
(-0.03823808732 0.002633583036 9.249953517e-24)
(-0.03863070537 -0.001443092974 8.361686274e-25)
(-0.03769519108 -0.005610661979 -8.385121536e-25)
(-0.03537400065 -0.009626406602 0)
(-0.03167638155 -0.01316562176 1.569748644e-22)
(-0.02672370817 -0.01581865854 -1.701723367e-22)
(-0.02080093169 -0.01712068807 -1.91962174e-22)
(-0.01439689954 -0.01662680041 -3.782158006e-22)
(-0.008201482199 -0.01403883656 1.861133791e-25)
(-0.00313924015 -0.009368017999 -3.702277223e-22)
(-0.000210683959 -0.003167330178 0)
(-0.0002224394464 0.005986824343 -2.557615059e-24)
(-0.004094485409 0.01488747953 6.237160422e-25)
(-0.009982515877 0.02039852371 -6.094698698e-25)
(-0.01683166485 0.02293314074 0)
(-0.0237575792 0.02307693642 1.505863921e-25)
(-0.03024587981 0.0213960598 -1.484973494e-25)
(-0.03594907591 0.01835650687 -5.093253602e-24)
(-0.04063644704 0.01429936918 -2.984236176e-23)
(-0.04413682173 0.009462420313 -1.149266081e-23)
(-0.04630089538 0.004026494972 -9.26072249e-24)
(-0.04698578527 -0.001829466342 0)
(-0.04605628802 -0.007876776109 1.975630332e-24)
(-0.04341152282 -0.01378229566 7.169610175e-23)
(-0.03903251477 -0.01907904932 -1.66949652e-22)
(-0.03304215731 -0.02315612837 1.093357012e-23)
(-0.02577734634 -0.02530045989 3.810248144e-22)
(-0.01784728277 -0.0248097642 -6.080626977e-24)
(-0.01013406316 -0.02118481084 0)
(-0.003836917776 -0.01436842456 -7.923212214e-24)
(-0.0002198588285 -0.005033140878 3.423679676e-22)
(-0.0002143385671 0.008460274306 1.018364431e-22)
(-0.004710958631 0.02066114601 -5.862020449e-25)
(-0.01153751415 0.0280475719 0)
(-0.01950190448 0.03135065454 0)
(-0.02759262018 0.03144977074 -4.716859396e-23)
(-0.03523203473 0.0291471082 -3.324548017e-23)
(-0.0420322776 0.02507499024 5.674265155e-24)
(-0.04773223935 0.01967460747 1.192679892e-23)
(-0.05212801184 0.0132336035 1.046253136e-23)
(-0.05502733962 0.005955397698 6.419127633e-24)
(-0.05623228147 -0.001960225256 -1.06463659e-23)
(-0.05553621848 -0.01024346704 -2.628970908e-23)
(-0.05275879642 -0.01846070976 -3.254501264e-25)
(-0.04781061377 -0.02597403237 -1.654113561e-22)
(-0.04077318494 -0.03191360705 0)
(-0.03200769967 -0.03523043399 -2.009364386e-22)
(-0.02225113434 -0.03485999437 6.424809442e-24)
(-0.01263621979 -0.03001163317 0)
(-0.00475008669 -0.02052999458 3.829948383e-22)
(-0.0002459240544 -0.007302568845 -6.950793333e-22)
(-0.0002206927224 0.01130917675 -1.010644527e-22)
(-0.005414065583 0.02729207746 2.055999925e-22)
(-0.01327104882 0.03682738475 1.041261702e-22)
(-0.02245106912 0.04102399846 2.151879894e-24)
(-0.03181419596 0.04111418715 -3.990609437e-23)
(-0.0407310472 0.03817567947 3.484414409e-23)
(-0.04878762964 0.03302494204 -1.224203671e-24)
(-0.05570509889 0.02620255895 4.577312809e-26)
(-0.06125384368 0.01803160216 -2.709749496e-25)
(-0.06519667929 0.008714131637 -6.201763878e-24)
(-0.06726967067 -0.001558018936 9.886515708e-24)
(-0.06716051397 -0.01247685887 2.897371251e-23)
(-0.06455507961 -0.02353368161 -8.870207834e-24)
(-0.05922846264 -0.03389124274 2.602873235e-22)
(-0.05114346029 -0.04234807245 -5.691924071e-24)
(-0.04062329971 -0.047389757 0)
(-0.02852237102 -0.04741501751 0)
(-0.01630284839 -0.04117366677 6.691057844e-24)
(-0.006137079293 -0.02834020119 -6.839340628e-24)
(-0.0003107249934 -0.01015521207 -1.411996201e-23)
(-0.0002461532285 0.01460041601 0)
(-0.006257460183 0.03491218788 1.177774577e-22)
(-0.0152986465 0.04689650629 5.184906923e-23)
(-0.02585272286 0.0521238368 0)
(-0.03664573749 0.05225556217 8.497619045e-23)
(-0.04701154129 0.04869442639 0)
(-0.05653116432 0.04246221288 -5.060116628e-23)
(-0.06492974754 0.03419584644 1.80222773e-24)
(-0.0719699518 0.02423184851 0)
(-0.07737945217 0.012735027 0)
(-0.08079914991 -0.0001546596559 5.434195787e-25)
(-0.081795077 -0.01415299987 1.160500392e-24)
(-0.07986939422 -0.02869769512 -1.284627223e-22)
(-0.07453921736 -0.04275036406 -7.067970722e-24)
(-0.06552364835 -0.05470303724 5.891234851e-24)
(-0.05298357738 -0.06239705987 -7.456901648e-24)
(-0.03782934291 -0.06341129089 7.574453454e-24)
(-0.02193167947 -0.05571995104 0)
(-0.00835470442 -0.0386407828 -3.235759994e-24)
(-0.000442431886 -0.0139305913 7.561749758e-22)
(-0.0002956530895 0.0184262432 0)
(-0.00728488044 0.04369516263 -8.573865058e-23)
(-0.01770291709 0.05844972617 -3.919703934e-22)
(-0.02981465881 0.06484203961 -2.211919687e-22)
(-0.04220356019 0.0650676747 0)
(-0.0541879036 0.06092049655 1.90335505e-22)
(-0.06537444488 0.05365585627 4.457788612e-23)
(-0.075525844 0.04400381657 -1.299303604e-24)
(-0.08442748475 0.03228548422 1.292875859e-24)
(-0.09179271755 0.01857722011 0)
(-0.09719257649 0.002896105579 1.24834468e-24)
(-0.1000311795 -0.01459970961 -1.321865309e-24)
(-0.09954149723 -0.03336444012 6.143321879e-23)
(-0.09487133962 -0.05220688654 -8.322953754e-23)
(-0.0853037267 -0.06906181098 2.094785735e-22)
(-0.07061804201 -0.08090621371 0)
(-0.05161462059 -0.0840691416 0)
(-0.03059319255 -0.07517978093 0)
(-0.01192043869 -0.05275664343 0)
(-0.0006866501682 -0.01920160626 -3.860108524e-22)
(-0.0003781838798 0.02290417325 0)
(-0.008546227384 0.05384625456 -2.239347359e-22)
(-0.0205545792 0.07169457829 5.562631321e-22)
(-0.03439732169 0.07935518532 2.128628287e-22)
(-0.04850513346 0.07970511595 0)
(-0.06221119103 0.0750188859 -1.794637357e-22)
(-0.07518979182 0.06682462913 -1.24722037e-23)
(-0.0872879992 0.05594570113 1.151818619e-22)
(-0.09836212534 0.04265569813 4.920611494e-23)
(-0.1081560733 0.02687725834 -8.496662028e-24)
(-0.1161995431 0.008401246945 5.131196163e-24)
(-0.1217414846 -0.01286129679 5.620825728e-25)
(-0.1236955334 -0.03655919029 -1.362594216e-23)
(-0.1207039262 -0.06147439039 0)
(-0.1113844045 -0.08510758579 -2.09579643e-22)
(-0.09481606691 -0.1033581917 -8.990532808e-24)
(-0.07135835843 -0.1107285987 9.124512687e-24)
(-0.04357802275 -0.1015623618 -3.63423555e-22)
(-0.01755515233 -0.07262956633 9.739761284e-24)
(-0.001120208301 -0.02688392682 0)
(-0.0005122730949 0.02818895534 0)
(-0.01012058402 0.06560186194 0)
(-0.02393967676 0.08682826845 -3.123672084e-22)
(-0.03963384376 0.09577796038 -1.141729419e-23)
(-0.05547071765 0.09621531591 1.050040396e-23)
(-0.07084104287 0.09101377045 -1.037638702e-23)
(-0.08553745661 0.08202666399 -9.027783489e-24)
(-0.09954643783 0.07017820637 -1.029549068e-22)
(-0.1128551519 0.05566697987 3.030362356e-23)
(-0.1253041097 0.03819497312 9.440316455e-24)
(-0.1364491058 0.01720612212 -6.388490235e-24)
(-0.1454414116 -0.007823714949 0)
(-0.1508835018 -0.03694452296 3.54392312e-23)
(-0.1508421784 -0.06919762755 0)
(-0.1430823251 -0.1018146885 6.74801321e-23)
(-0.1256190093 -0.1295214832 -2.49650357e-22)
(-0.09784431861 -0.1443765525 0)
(-0.06205904341 -0.1370862059 3.535975619e-22)
(-0.02616239455 -0.1008488427 -4.010689547e-22)
(-0.001873138525 -0.03836687762 2.942860346e-22)
(-0.0007363912692 0.03450361248 0)
(-0.01215310637 0.0792403673 6.009664741e-22)
(-0.02799557506 0.1040095351 -1.559809305e-23)
(-0.04554870261 0.114096302 5.771585854e-22)
(-0.06291174204 0.1144372327 -1.481200159e-23)
(-0.07959356892 0.1086517934 1.380834842e-23)
(-0.09556016704 0.09898060087 -1.368226359e-23)
(-0.1109893181 0.08646496048 -6.19469783e-24)
(-0.1260572337 0.07121519287 -1.872179133e-22)
(-0.1407790636 0.05266306385 -2.854681994e-24)
(-0.1548415595 0.02979941059 2.14089235e-24)
(-0.1673939792 0.001476739334 8.389128124e-23)
(-0.1768958195 -0.03308065429 -8.908757643e-23)
(-0.1809733212 -0.07351573198 0)
(-0.1764980589 -0.1171835461 -4.984059506e-23)
(-0.1601734501 -0.1578374564 2.338672642e-22)
(-0.1297771364 -0.1847239495 9.102637471e-24)
(-0.08627736092 -0.183371548 0)
(-0.03866193235 -0.1403710911 3.957985261e-22)
(-0.003166499624 -0.05563024984 -2.890311752e-22)
(-0.001130570317 0.04220489884 1.019824025e-23)
(-0.01491758971 0.09510607351 -5.736639837e-22)
(-0.03295641151 0.1233155914 -7.929198556e-22)
(-0.05216241584 0.1340659461 -5.419032874e-22)
(-0.07048333667 0.1338537311 0)
(-0.0876403774 0.127208993 1.868611025e-23)
(-0.1038289233 0.1168160914 -3.678362588e-23)
(-0.1194522566 0.1038515709 2.706158738e-23)
(-0.1349099918 0.08834557498 1.136771657e-22)
(-0.1504533266 0.06945218884 -4.320068304e-24)
(-0.1660197105 0.04566010304 0)
(-0.1810059916 0.01506607238 -8.931271779e-23)
(-0.1939999213 -0.0241137241 1.98048954e-22)
(-0.2025571708 -0.07251403328 2.330771223e-22)
(-0.2030608569 -0.1282498574 -1.09161771e-23)
(-0.1909914011 -0.1847887753 7.902996708e-24)
(-0.1619892139 -0.2289038223 -1.336346158e-23)
(-0.1141532436 -0.2398887485 1.357790225e-23)
(-0.05550331806 -0.1936167804 -6.90454459e-22)
(-0.005361907246 -0.08126356077 0)
(-0.001860248751 0.05190842614 -1.32745291e-23)
(-0.01892147841 0.1136284496 -9.684303778e-22)
(-0.03919616704 0.1446394609 7.514721838e-22)
(-0.05944145822 0.1550285072 4.847202132e-22)
(-0.07754060647 0.1533642514 4.196861492e-22)
(-0.09359818051 0.1452347453 4.363029085e-22)
(-0.1081101589 0.1337850102 -2.419230093e-23)
(-0.12172212 0.1203268488 -1.94458061e-22)
(-0.1350570564 0.1048372586 1.10974026e-22)
(-0.1486294685 0.08624904598 0)
(-0.1627343575 0.06261211937 0)
(-0.1772586756 0.03129573714 1.157723002e-22)
(-0.1913571122 -0.01054179727 8.521563385e-23)
(-0.2032203786 -0.06499835718 -6.165027879e-24)
(-0.2095746978 -0.1315857536 -1.61171042e-23)
(-0.2053584874 -0.2047573304 1.293290035e-22)
(-0.1841189138 -0.2703238662 8.910678204e-23)
(-0.1395847055 -0.3018659095 -3.357559019e-22)
(-0.0755868744 -0.2606141822 6.895077523e-22)
(-0.008966356796 -0.1182056027 -1.023668239e-21)
(-0.003274443097 0.06475118015 0)
(-0.02507021415 0.1353554118 1.609198221e-21)
(-0.04719360033 0.1675160327 0)
(-0.06703409689 0.1756303524 -1.025541864e-21)
(-0.08268110527 0.1709793814 9.736217164e-23)
(-0.09496365475 0.1602701896 -4.061903473e-22)
(-0.1048088552 0.1470296059 -3.243064248e-22)
(-0.1131314406 0.1326486386 5.008993702e-22)
(-0.1207538057 0.1170722094 -9.567740378e-23)
(-0.1284276469 0.09912389516 0)
(-0.1368322462 0.07661482566 0)
(-0.1465025142 0.04643708963 3.829557554e-23)
(-0.1576717974 0.00488892484 -2.565522927e-22)
(-0.1698178623 -0.05157302975 -1.680974346e-22)
(-0.1810729965 -0.1245386295 2.404024132e-22)
(-0.187330435 -0.211039337 -1.440053294e-22)
(-0.1811683252 -0.2987227407 -4.73645507e-23)
(-0.1513986122 -0.358609998 3.647279912e-22)
(-0.09455960659 -0.3360988733 7.090631674e-22)
(-0.01444496661 -0.1688253769 1.021737901e-21)
(-0.006029051889 0.08271330244 0)
(-0.03480771959 0.1605457448 1.753373938e-22)
(-0.05711194581 0.1903346526 -4.057725417e-23)
(-0.07331062329 0.1929762553 6.061035078e-22)
(-0.08238268948 0.1831116979 -5.421772518e-22)
(-0.08655248806 0.1683714031 3.603415339e-23)
(-0.08742977875 0.1523887513 -1.10656855e-22)
(-0.08626959588 0.1364595807 -2.131984482e-22)
(-0.08406420144 0.1204558375 1.399605507e-22)
(-0.08171817648 0.1031969091 0)
(-0.0801971177 0.08252471321 0)
(-0.08062187923 0.05528659754 -1.543692482e-22)
(-0.0843022669 0.01746557617 0)
(-0.09246019812 -0.03537128299 -3.585151592e-22)
(-0.1056308915 -0.1070215037 5.956620411e-23)
(-0.1223240234 -0.1983827629 1.018357495e-23)
(-0.1367252433 -0.3024421875 -6.082140225e-23)
(-0.134168341 -0.3937524343 1.586604527e-23)
(-0.1032732892 -0.4064675332 -7.378021971e-22)
(-0.02152410668 -0.2325167057 0)
(-0.01144942162 0.110175675 0)
(-0.04961673686 0.1893379867 -7.481479803e-22)
(-0.06637170287 0.209811296 -5.022984872e-22)
(-0.07160180761 0.2019281469 4.336351792e-22)
(-0.06658708455 0.1840331019 -2.145219146e-24)
(-0.05597988353 0.1639035866 -4.119295522e-23)
(-0.04230249414 0.1446163397 4.65223765e-22)
(-0.0271312079 0.126973353 -2.055901199e-23)
(-0.01150028619 0.1105884601 -1.380904244e-22)
(0.003727077388 0.09427724403 2.215227098e-23)
(0.01755580017 0.07610895551 -2.340427881e-23)
(0.02861974036 0.05333000237 -2.455693543e-23)
(0.03493307124 0.02232813004 2.236005109e-22)
(0.0338989612 -0.02134337599 4.023501517e-22)
(0.02252139276 -0.08260536897 -3.441422519e-22)
(-0.001455321932 -0.166177287 -1.414920457e-22)
(-0.03719675037 -0.2729116408 1.257772398e-22)
(-0.07059037088 -0.3887523346 6.913771119e-23)
(-0.08725607995 -0.4494442636 1.778051278e-21)
(-0.02714588773 -0.3026827337 2.779929007e-21)
(-0.0195274882 0.1501060591 -4.128303275e-23)
(-0.06616197716 0.2129520276 4.153836852e-23)
(-0.05938142377 0.2128090515 9.616546931e-22)
(-0.03800556695 0.1890435101 2.072834791e-23)
(-0.006839934968 0.1622319833 0)
(0.02686593357 0.1378493295 4.206632506e-23)
(0.06036842173 0.1170652703 -2.041565744e-22)
(0.09244119671 0.09957411368 -7.937349197e-23)
(0.1225407507 0.08449586249 3.02035639e-23)
(0.1502755665 0.07060400336 -1.123466538e-23)
(0.1750275351 0.05630162037 2.34319958e-23)
(0.1956602812 0.03951296053 -4.766023271e-23)
(0.2100936251 0.01757413874 -5.668736733e-23)
(0.2152960387 -0.01302018225 1.214342603e-22)
(0.2067879046 -0.05652417394 0)
(0.1794201668 -0.1192742146 1.355122427e-22)
(0.1271944001 -0.2092339442 1.955777556e-22)
(0.0574420041 -0.3301626362 0)
(-0.02697661162 -0.439629722 -3.40634675e-21)
(-0.02203519821 -0.3651270798 -2.720670121e-21)
(-0.02500847148 0.2308850277 -9.385405079e-22)
(-0.03720767675 0.227448128 -1.363790377e-22)
(0.03845298322 0.1818233584 -2.272216822e-22)
(0.1064973233 0.14191916 -1.131687584e-22)
(0.1718355622 0.1104306527 -4.644840925e-23)
(0.2295114237 0.08682841842 1.068589197e-22)
(0.279677634 0.06924087551 -1.428109449e-22)
(0.323254642 0.05586771787 1.170559426e-22)
(0.361186676 0.04528984034 -6.973045528e-23)
(0.3941173577 0.03630452632 3.810257419e-25)
(0.4221684068 0.02773563153 1.127915522e-23)
(0.4447834875 0.01829734145 5.797023722e-23)
(0.4601561983 0.00647007098 -1.365226588e-22)
(0.4658126154 -0.009451900109 -1.276453989e-22)
(0.4570018127 -0.03227257687 -3.719703646e-23)
(0.4278838574 -0.06678908538 0)
(0.3671428306 -0.1221675584 -1.342338303e-22)
(0.2719381892 -0.2178396141 7.35513122e-22)
(0.1081005762 -0.3501512342 1.504194421e-21)
(0.0240040075 -0.3752868257 2.102389349e-21)
(0.2150635899 0.1354675883 9.724840385e-22)
(0.2806871997 0.09995927365 0)
(0.4361459746 0.05896733979 -2.619726794e-22)
(0.534490006 0.03868639035 -1.871447409e-22)
(0.6030970604 0.02581860246 0)
(0.6541559692 0.0174313669 -6.728120532e-23)
(0.6931533966 0.01201929783 6.576802919e-23)
(0.7235779335 0.008463763154 -1.590370533e-23)
(0.7477747007 0.006021486099 2.520942118e-23)
(0.7671498172 0.004197191712 1.822250756e-23)
(0.7823321307 0.002608177424 0)
(0.7932653278 0.00093376564 -2.115299894e-23)
(0.7991267098 -0.001216957148 0)
(0.7982537245 -0.003842485056 2.171399232e-23)
(0.7867229187 -0.007761462959 1.45956243e-23)
(0.7610495416 -0.01365277409 -5.041707991e-23)
(0.7077998367 -0.02446001297 -2.156024101e-22)
(0.6225755377 -0.04222158101 -6.284829118e-22)
(0.4222356849 -0.09241302938 0)
(0.2702518078 -0.1527372914 -2.050927276e-21)
)
;

boundaryField
{
    movingWall
    {
        type            calculated;
        value           uniform (1 0 0);
    }
    fixedWalls
    {
        type            calculated;
        value           uniform (0 0 0);
    }
    frontAndBack
    {
        type            empty;
    }
}


// ************************************************************************* //
