/*--------------------------------*- C++ -*----------------------------------*\
  =========                 |
  \\      /  F ield         | OpenFOAM: The Open Source CFD Toolbox
   \\    /   O peration     | Website:  https://openfoam.org
    \\  /    A nd           | Version:  13
     \\/     M anipulation  |
\*---------------------------------------------------------------------------*/
FoamFile
{
    format      ascii;
    class       vectorField;
    location    "2";
    object      U_all;
}
// * * * * * * * * * * * * * * * * * * * * * * * * * * * * * * * * * * * * * //


400
(
(-4.062979131e-05 4.715006579e-05 0)
(-0.0006178498449 0.0003661804901 -7.58757021e-24)
(-0.001683585281 0.000685893614 0)
(-0.002922737636 0.0009181750448 0)
(-0.004155437793 0.001037528435 -2.174090778e-25)
(-0.005282670477 0.001040701846 2.947022489e-24)
(-0.00624696261 0.0009381863777 2.594017879e-23)
(-0.007015544853 0.0007464883414 4.364958941e-23)
(-0.007566803537 0.0004856320625 -5.432372414e-25)
(-0.007882122082 0.0001780688685 -9.332856331e-24)
(-0.007944103128 -0.0001514411086 1.224417993e-23)
(-0.007735197786 -0.0004736812407 -1.174430799e-22)
(-0.007241812085 -0.0007584809855 -1.359290895e-22)
(-0.006463014477 -0.000973387111 -1.60395669e-22)
(-0.005418936695 -0.001087035432 1.066598365e-23)
(-0.004164276578 -0.00107431054 -1.147656442e-23)
(-0.002801542162 -0.0009235508631 -7.624952485e-22)
(-0.001491210875 -0.0006474376293 0)
(-0.0004409650197 -0.0002962002603 3.006401801e-24)
(1.006971016e-05 1.318169483e-05 -3.779231855e-22)
(-0.0001880323049 0.0007396921678 6.925814441e-26)
(-0.00185907077 0.002419790623 7.668258618e-24)
(-0.004533151185 0.003726045106 4.282551907e-26)
(-0.007634211911 0.004481218643 2.047100492e-25)
(-0.01073422486 0.004717651057 -5.774146459e-25)
(-0.01358648494 0.004508785669 -1.537621341e-23)
(-0.01603687401 0.003936902691 2.986950037e-23)
(-0.01799271861 0.003078409167 -4.255897725e-23)
(-0.01939260097 0.002002205775 2.975845776e-23)
(-0.02018775781 0.0007739613637 1.064544883e-23)
(-0.0203332439 -0.0005374091225 -1.335912741e-23)
(-0.01978953341 -0.001851491146 -5.57780059e-25)
(-0.01853147439 -0.003073516998 7.231833264e-23)
(-0.01656464059 -0.004090278321 -5.058175736e-24)
(-0.01394952807 -0.004773985967 1.059644964e-23)
(-0.01082934806 -0.004994767764 -3.744209941e-22)
(-0.00745708385 -0.004645534424 3.953326326e-22)
(-0.004204300589 -0.003682938317 -5.979776019e-24)
(-0.001561845606 -0.002182346293 6.130548574e-24)
(-0.0001335293535 -0.0005105819398 0)
(-0.0002346668459 0.002082429989 -1.044180774e-25)
(-0.002790895437 0.005700422167 -1.228710386e-24)
(-0.006717070575 0.008188103658 -8.818450355e-24)
(-0.01126301519 0.009476469357 1.374929965e-25)
(-0.0158237023 0.009723257553 -1.350734714e-25)
(-0.02004478872 0.009127170111 7.534685055e-25)
(-0.02369279611 0.007875033815 -2.871972322e-23)
(-0.02662041732 0.006120847854 -2.352745338e-24)
(-0.0287273235 0.003988028785 -3.119916666e-23)
(-0.02993405655 0.001583607249 0)
(-0.0301700016 -0.0009832974571 0)
(-0.02937468875 -0.003584194329 6.128558486e-23)
(-0.02751193685 -0.006054184334 6.66287269e-23)
(-0.02459543218 -0.008183949765 -5.012329348e-24)
(-0.0207232176 -0.009720847916 1.748320528e-22)
(-0.01611641587 -0.01038941366 3.63125859e-22)
(-0.01115091879 -0.009938729222 3.715133563e-22)
(-0.006358024656 -0.008220720253 1.179735252e-23)
(-0.002441464572 -0.005295861186 -5.972509205e-24)
(-0.0001922916703 -0.001640509877 0)
(-0.0002361801254 0.00385804481 2.474921525e-24)
(-0.003492943718 0.009904935388 1.496189427e-24)
(-0.008454268146 0.0137962639 8.631699268e-24)
(-0.01420932253 0.0156734694 0)
(-0.02000493607 0.0158799532 0)
(-0.02539971395 0.01477997951 0)
(-0.03009652991 0.01269011925 -1.038115154e-24)
(-0.03390199961 0.009854383017 1.903919506e-23)
(-0.03667897282 0.006454192252 0)
(-0.03831479427 0.002636533783 9.23434443e-24)
(-0.03870743519 -0.001451530343 8.348666307e-25)
(-0.03776723765 -0.005630251069 -8.37206505e-25)
(-0.03543676773 -0.009655064836 0)
(-0.03172609281 -0.01319926881 1.566852794e-22)
(-0.02675820761 -0.01585156744 -1.69843531e-22)
(-0.02082036711 -0.01714655303 -1.915156458e-22)
(-0.01440399305 -0.01664054884 -3.772712541e-22)
(-0.008201112584 -0.01403888223 1.88074297e-25)
(-0.00313665359 -0.009358325703 -3.688625251e-22)
(-0.0002106265996 -0.003158581322 0)
(-0.0002229942421 0.005991108598 -2.451380971e-24)
(-0.004100637853 0.01490191578 6.229630726e-25)
(-0.009998400793 0.02042367675 -6.087340621e-25)
(-0.01686050123 0.02296801928 0)
(-0.02380159019 0.02311875178 1.513690462e-25)
(-0.03030618763 0.02144054797 -1.492691575e-25)
(-0.03602548895 0.01839862852 -5.033869739e-24)
(-0.04072739014 0.0143340192 -2.976168887e-23)
(-0.04423935963 0.009484982336 -1.146297241e-23)
(-0.0464108201 0.004033301231 -9.245095267e-24)
(-0.04709778237 -0.00184062681 0)
(-0.04616427193 -0.007906017377 1.972166255e-24)
(-0.04350920337 -0.01382700964 7.156000664e-23)
(-0.03911422353 -0.0191335451 -1.666408407e-22)
(-0.03310387951 -0.02321197409 1.09102512e-23)
(-0.02581774222 -0.02534787903 3.801089192e-22)
(-0.01786836114 -0.02484021489 -6.064884672e-24)
(-0.01014110376 -0.02119439187 0)
(-0.003836804025 -0.0143611695 -7.700529563e-24)
(-0.0002200943533 -0.005023045658 3.405629442e-22)
(-0.0002149530989 0.008468553904 1.017323355e-22)
(-0.004719041695 0.02068574287 -5.854933137e-25)
(-0.01155830671 0.02808778946 0)
(-0.01953939401 0.0314044008 0)
(-0.02764956466 0.0315129327 -4.720911041e-23)
(-0.03530996577 0.02921381961 -3.330670575e-23)
(-0.04213131359 0.02513842406 5.608406867e-24)
(-0.04785099422 0.01972779104 1.188462663e-23)
(-0.05226354366 0.01327004986 1.043591773e-23)
(-0.05517512045 0.005969655918 6.395820846e-24)
(-0.05638621362 -0.00197188626 -1.061678958e-23)
(-0.05568884512 -0.01028209333 -2.622522695e-23)
(-0.05290180134 -0.01852370655 -3.506832622e-25)
(-0.04793570019 -0.02605438736 -1.650382327e-22)
(-0.04087337117 -0.03200000559 0)
(-0.03207886058 -0.03530880803 -2.004381022e-22)
(-0.02229343388 -0.03491686004 6.40702142e-24)
(-0.01265480913 -0.03003894723 0)
(-0.004753895123 -0.0205302946 3.81394306e-22)
(-0.0002464949231 -0.007292568793 -6.910689399e-22)
(-0.0002213012438 0.01132241212 -1.009612434e-22)
(-0.005423597127 0.02732904464 2.056176145e-22)
(-0.01329574849 0.03688576494 1.041607779e-22)
(-0.02249579188 0.0411004235 2.153270271e-24)
(-0.03188247977 0.0412031616 -3.994802145e-23)
(-0.04082520151 0.03826973094 3.491019402e-23)
(-0.04890857069 0.03311543561 -1.227145685e-24)
(-0.0558522207 0.02628053616 4.32582789e-26)
(-0.06142484973 0.01808840745 -2.669299705e-25)
(-0.0653873515 0.008741994693 -6.17996914e-24)
(-0.06747357956 -0.001565134051 9.858560238e-24)
(-0.06736900463 -0.01252203162 2.890248001e-23)
(-0.06475753598 -0.02361537345 -8.902961512e-24)
(-0.05941303521 -0.03400196694 2.596524575e-22)
(-0.05129864208 -0.04247386146 -5.677888575e-24)
(-0.04074020367 -0.04751144544 0)
(-0.02859741844 -0.04751214001 0)
(-0.01633993953 -0.04123110411 6.661364125e-24)
(-0.006147489598 -0.02835618009 -6.808989052e-24)
(-0.0003117825039 -0.01014779745 -1.36120679e-23)
(-0.0002466897555 0.01461923924 0)
(-0.006267753127 0.03496307596 1.178773382e-22)
(-0.01532574818 0.04697542557 5.18991673e-23)
(-0.0259024223 0.05222619018 0)
(-0.03672262424 0.05237460356 8.505728388e-23)
(-0.04711914309 0.04882124954 0)
(-0.0566717996 0.04258651656 -5.072999531e-23)
(-0.06510434627 0.0343066936 1.808677639e-24)
(-0.07217772736 0.02431816428 0)
(-0.0776173765 0.01278609258 0)
(-0.08106133998 -0.0001482834303 5.402681132e-25)
(-0.08207211321 -0.01419790389 1.15659769e-24)
(-0.08014812196 -0.02879520943 -1.27946938e-22)
(-0.07480330954 -0.0428942545 -7.143666418e-24)
(-0.06575521663 -0.05487767219 5.873232954e-24)
(-0.05316639253 -0.06257766979 -7.432644167e-24)
(-0.03795334041 -0.06356786756 7.549813798e-24)
(-0.02199752892 -0.05582591152 0)
(-0.008375931631 -0.03868527473 -3.214185218e-24)
(-0.0004442535295 -0.01393011857 7.50110177e-22)
(-0.0002960385266 0.01845083405 0)
(-0.007294987545 0.04376059063 -8.57277681e-23)
(-0.0177302914 0.05855048792 -3.922135904e-22)
(-0.02986600282 0.06497262011 -2.213867155e-22)
(-0.04228472922 0.0652204316 0)
(-0.05430404613 0.06108547624 1.906571699e-22)
(-0.06552987725 0.05382144871 4.469179027e-23)
(-0.07572382446 0.04415731405 -1.305826645e-24)
(-0.08466970598 0.0324132827 1.299366628e-24)
(-0.0920784225 0.01866503641 0)
(-0.09751735508 0.00292980018 1.298602451e-24)
(-0.1003855741 -0.01463222047 -1.310904102e-24)
(-0.09991010577 -0.03346991776 6.111954581e-23)
(-0.0952327508 -0.05238314249 -8.289984808e-23)
(-0.08563210686 -0.06929362472 2.084292301e-22)
(-0.07088737192 -0.08116345849 0)
(-0.05180533225 -0.08430961244 0)
(-0.03069991311 -0.07535964256 0)
(-0.01195786952 -0.05284862144 0)
(-0.0006896222594 -0.01921512843 -3.826836756e-22)
(-0.0003783121744 0.02293408434 0)
(-0.008554843943 0.05392553527 -2.240557043e-22)
(-0.020579243 0.07181689528 5.566656581e-22)
(-0.03444545818 0.07951468618 2.130507225e-22)
(-0.04858388989 0.07989383144 0)
(-0.06232751547 0.07522641603 -1.797633026e-22)
(-0.07535034258 0.06703865248 -1.250277625e-23)
(-0.08749888924 0.05615220669 1.155668473e-22)
(-0.0986282352 0.04283868235 4.944304231e-23)
(-0.1084797823 0.02701840483 -8.560265979e-24)
(-0.1165789104 0.008480380998 5.162357383e-24)
(-0.1221678203 -0.01286418772 5.440547878e-25)
(-0.1241518899 -0.03665897761 -1.28144007e-23)
(-0.1211643564 -0.06167664768 0)
(-0.1118151698 -0.08540067547 -2.085297863e-22)
(-0.09518080829 -0.1037080922 -8.949934586e-24)
(-0.07162638955 -0.1110792161 9.083309582e-24)
(-0.04373498968 -0.1018465821 -3.616836145e-22)
(-0.01761396277 -0.07279394884 9.687392499e-24)
(-0.001124780486 -0.02692158502 0)
(-0.0005120029545 0.0282228812 0)
(-0.01012597537 0.06569251036 0)
(-0.02395759879 0.08696955161 -3.126009831e-22)
(-0.03967197994 0.09596448946 -1.142721629e-23)
(-0.05553717489 0.0964394995 1.051619015e-23)
(-0.07094427638 0.09126549251 -1.039198679e-23)
(-0.08568622191 0.08229365495 -9.053408455e-24)
(-0.09974953151 0.0704458411 -1.033083397e-22)
(-0.1131205934 0.05591727115 3.041638454e-23)
(-0.125637578 0.03840547157 9.510250377e-24)
(-0.1368515828 0.01734989234 -6.470063444e-24)
(-0.1459051906 -0.007775905716 0)
(-0.1513915253 -0.03702042158 3.528667368e-23)
(-0.1513669362 -0.06941315169 0)
(-0.1435854377 -0.1021649255 6.610239692e-23)
(-0.1260575213 -0.129971185 -2.47134453e-22)
(-0.09817881684 -0.1448566549 0)
(-0.06226484692 -0.137503061 3.519102769e-22)
(-0.02624507683 -0.1011128928 -3.986908174e-22)
(-0.001879800671 -0.03844130995 2.914814712e-22)
(-0.0007355549609 0.03453914383 0)
(-0.01215316611 0.07933757186 6.013522832e-22)
(-0.02800175156 0.104164079 -1.560926787e-23)
(-0.04556810408 0.1143041621 5.776679135e-22)
(-0.06295258382 0.1146918738 -1.482811831e-23)
(-0.07966482288 0.1089440573 1.383585317e-23)
(-0.09567153762 0.09929899596 -1.370951725e-23)
(-0.1111509827 0.08679495658 -6.217599448e-24)
(-0.1262789449 0.07153736473 -1.880024191e-22)
(-0.1410683437 0.0529510379 -2.869004504e-24)
(-0.1552010923 0.03001914854 2.16159732e-24)
(-0.1678197794 0.001588672458 8.469155427e-23)
(-0.1773728915 -0.03311668159 -9.065637574e-23)
(-0.18147528 -0.07372761786 0)
(-0.1769904408 -0.1175751046 -4.64916988e-23)
(-0.160616469 -0.1583756683 2.315003526e-22)
(-0.1301311515 -0.1853319478 9.014078059e-24)
(-0.08651011228 -0.1839331871 0)
(-0.03876486619 -0.1407559159 3.934608028e-22)
(-0.003175795754 -0.05575457591 -2.862688867e-22)
(-0.001129017868 0.04223837468 1.020457902e-23)
(-0.01491018052 0.09520234751 -5.74030927e-22)
(-0.03294554271 0.1234739274 -7.933837771e-22)
(-0.05215339672 0.1342845025 -5.423811191e-22)
(-0.0704830806 0.1341274732 0)
(-0.08765667529 0.1275301047 1.871988915e-23)
(-0.1038704185 0.1171742952 -3.68624025e-23)
(-0.1195281992 0.1042329334 2.713650959e-23)
(-0.1350294232 0.08872981619 1.141427017e-22)
(-0.150623532 0.06980973667 -4.339353952e-24)
(-0.166244081 0.04595074408 0)
(-0.1812822225 0.01524128862 -9.01815854e-23)
(-0.1943184387 -0.0241024738 2.002109231e-22)
(-0.2029016456 -0.07270478849 2.360910122e-22)
(-0.2034106364 -0.1286537722 -1.294894669e-23)
(-0.191322961 -0.185377894 1.04897323e-23)
(-0.1622759704 -0.2296028092 -1.325649899e-23)
(-0.114363957 -0.2405734303 1.346922295e-23)
(-0.05561237171 -0.1941238682 -6.874313216e-22)
(-0.005374241244 -0.08144750131 0)
(-0.001857953524 0.05193509542 -1.328115819e-23)
(-0.01890525451 0.1137138588 -9.68796728e-22)
(-0.03916436452 0.1447883847 7.519074257e-22)
(-0.05939612091 0.1552418212 4.849554124e-22)
(-0.07748561332 0.1536385025 4.199585083e-22)
(-0.09353815551 0.1455634348 4.367276898e-22)
(-0.1080504293 0.1341590855 -2.424280744e-23)
(-0.1216684994 0.1207331577 -1.948677901e-22)
(-0.1350152862 0.1052552951 1.11298012e-22)
(-0.1486043414 0.08664755447 0)
(-0.1627287309 0.06294772633 0)
(-0.1772730449 0.03151595597 1.164698559e-22)
(-0.1913904621 -0.01048977191 8.549150572e-23)
(-0.2032713837 -0.06515451427 -7.092403402e-24)
(-0.2096444326 -0.1319637645 -1.632122796e-23)
(-0.2054502366 -0.2053350974 1.300207956e-22)
(-0.1842319976 -0.271037879 8.637651146e-23)
(-0.1397021228 -0.3026062013 -3.338097206e-22)
(-0.0756734014 -0.2612100414 6.86488777e-22)
(-0.008981029099 -0.118449083 -1.021094104e-21)
(-0.003271691784 0.0647660167 0)
(-0.02504609068 0.1354190089 1.609683553e-21)
(-0.04714147815 0.1676401435 0)
(-0.06695143585 0.1758187264 -1.025840903e-21)
(-0.08256727501 0.1712299729 9.720016296e-23)
(-0.09481869211 0.1605775538 -4.065849761e-22)
(-0.1046334154 0.1473856823 -3.246149519e-22)
(-0.1129266473 0.1330410908 5.017627743e-22)
(-0.1205211208 0.1174810784 -9.596724325e-23)
(-0.1281689625 0.09951835448 0)
(-0.1365502542 0.07695222534 0)
(-0.1462017677 0.04666693017 3.832596729e-23)
(-0.157360283 0.004962183021 -2.583891761e-22)
(-0.1695099355 -0.05169052029 -1.696120741e-22)
(-0.1807919266 -0.1248559602 2.421510874e-22)
(-0.1871058378 -0.2115377522 -1.473014348e-22)
(-0.1810298925 -0.2993555415 -4.703978733e-23)
(-0.1513551791 -0.3593015192 3.626771224e-22)
(-0.09458392388 -0.3367071233 7.080102983e-22)
(-0.01445847184 -0.1691100899 1.01916863e-21)
(-0.006026680935 0.08271289144 0)
(-0.03478078302 0.1605788851 1.751982734e-22)
(-0.05704878999 0.190420204 -4.057743181e-23)
(-0.0732035676 0.193120678 6.061863523e-22)
(-0.08222601995 0.1833142833 -5.423061953e-22)
(-0.08634142414 0.1686276684 3.604857443e-23)
(-0.08716040659 0.1526915568 -1.10537649e-22)
(-0.08593881839 0.1367976538 -2.135310286e-22)
(-0.08367008199 0.12081086 1.401629591e-22)
(-0.08126106555 0.1035409327 0)
(-0.07968100068 0.08281952773 0)
(-0.08005627327 0.05548866494 -1.550987928e-22)
(-0.0837038558 0.01753494912 0)
(-0.09185416857 -0.03545858957 -3.601140576e-22)
(-0.1050536064 -0.1072643299 5.928450719e-23)
(-0.1218189088 -0.1987599587 1.034006001e-23)
(-0.1363430831 -0.3029182259 -5.844612374e-23)
(-0.1339446305 -0.3942915394 1.575175041e-23)
(-0.103205401 -0.4069853179 -7.366428623e-22)
(-0.02152981924 -0.2328004024 0)
(-0.01144889788 0.1101612657 0)
(-0.04959720991 0.1893396352 -7.48131626e-22)
(-0.06631811606 0.2098526526 -5.021223378e-22)
(-0.07150199473 0.2020179356 4.333870133e-22)
(-0.06643058552 0.1841720612 -2.144338118e-24)
(-0.05575757445 0.1640883258 -4.117449142e-23)
(-0.04200653673 0.144840844 4.652211651e-22)
(-0.02675518917 0.12722795 -2.057458801e-23)
(-0.01103991898 0.110857772 -1.383052777e-22)
(0.004271754796 0.0945383062 2.218645253e-23)
(0.01817885066 0.07633123323 -2.345732672e-23)
(0.02930712929 0.05347913517 -2.464006702e-23)
(0.03566124497 0.02237412847 2.243191817e-22)
(0.03463661674 -0.02141502308 4.041183458e-22)
(0.02322718889 -0.08278457987 -3.45780267e-22)
(-0.0008215948471 -0.1664331315 -1.421198242e-22)
(-0.03668519653 -0.2732132938 1.255833857e-22)
(-0.07024802241 -0.3890866103 6.913417934e-23)
(-0.08710620908 -0.4497891966 1.77879304e-21)
(-0.02713757835 -0.3029076771 2.781041487e-21)
(-0.01953025248 0.1500860424 -4.127427636e-23)
(-0.06616097005 0.2129338764 4.152956501e-23)
(-0.05936197461 0.2128147444 9.612197699e-22)
(-0.03795298389 0.1890827921 2.05990052e-23)
(-0.006739944666 0.1623067841 0)
(0.0270263804 0.1379576092 4.202995323e-23)
(0.06060083323 0.117202504 -2.040508374e-22)
(0.09275497266 0.09973304439 -7.933580784e-23)
(0.1229422025 0.08466540725 3.020426131e-23)
(0.1507657062 0.07076805943 -1.125952972e-23)
(0.1755996923 0.05643959583 2.348510636e-23)
(0.1962979262 0.03960148708 -4.776992477e-23)
(0.2107695385 0.01759305329 -5.693966635e-23)
(0.2159752932 -0.0130794781 1.217583327e-22)
(0.2074310043 -0.05665132696 0)
(0.1799921288 -0.1194353146 1.361542439e-22)
(0.1276622305 -0.2093970565 1.960536612e-22)
(0.05777709391 -0.3303166063 0)
(-0.02680595692 -0.4397911541 -3.407960243e-21)
(-0.02201455853 -0.3652473713 -2.721768658e-21)
(-0.02501233061 0.2308713473 -9.384639453e-22)
(-0.03722277034 0.2274283294 -1.363335942e-22)
(0.03843493655 0.1818126628 -2.270944117e-22)
(0.1064904909 0.1419249793 -1.131182731e-22)
(0.1718552927 0.1104552787 -4.63938648e-23)
(0.2295728108 0.08687115106 1.066840552e-22)
(0.2797941727 0.06929906578 -1.42617451e-22)
(0.3234372852 0.05593714765 1.169803577e-22)
(0.3614426998 0.04536440799 -6.974254537e-23)
(0.3944485085 0.03637584118 3.784064485e-25)
(0.4225687533 0.02779330268 1.129971978e-23)
(0.4452374063 0.01833000427 5.810311349e-23)
(0.4606384339 0.006468351637 -1.368734224e-22)
(0.4662900316 -0.009491811136 -1.280030727e-22)
(0.4574382176 -0.03234412266 -3.730949243e-23)
(0.4282517574 -0.06687220901 0)
(0.3674275682 -0.1222374787 -1.343833394e-22)
(0.2721383012 -0.2178826327 7.360162452e-22)
(0.1082146968 -0.3501844084 1.505057633e-21)
(0.02402880627 -0.3753133859 2.102910289e-21)
(0.2150608113 0.1354651065 9.723970477e-22)
(0.2806740549 0.09995380295 0)
(0.4361235997 0.05896266013 -2.618221073e-22)
(0.534465233 0.0386840948 -1.869416423e-22)
(0.6030798455 0.02581921933 0)
(0.6541563941 0.01743479861 -6.716206994e-23)
(0.6931802791 0.01202500409 6.566751838e-23)
(0.7236379735 0.00847088979 -1.589239659e-23)
(0.7478716896 0.00602885875 2.519442211e-23)
(0.7672836407 0.004203282134 1.823076433e-23)
(0.7824977167 0.002611225655 0)
(0.7934519736 0.0009320149667 -2.119585674e-23)
(0.7993180319 -0.00122433509 0)
(0.7984299119 -0.003855594593 2.177918874e-23)
(0.7868651887 -0.007778295125 1.464025692e-23)
(0.7611468258 -0.01366885634 -5.044397752e-23)
(0.7078538496 -0.02447089937 -2.157994376e-22)
(0.6226007403 -0.04222492665 -6.288932319e-22)
(0.4222490642 -0.09240995829 0)
(0.2702554927 -0.1527350303 -2.051435554e-21)
)


// ************************************************************************* //
