/*--------------------------------*- C++ -*----------------------------------*\
  =========                 |
  \\      /  F ield         | OpenFOAM: The Open Source CFD Toolbox
   \\    /   O peration     | Website:  https://openfoam.org
    \\  /    A nd           | Version:  13
     \\/     M anipulation  |
\*---------------------------------------------------------------------------*/
FoamFile
{
    format      ascii;
    class       scalarField;
    location    "39.5";
    object      p_all;
}
// * * * * * * * * * * * * * * * * * * * * * * * * * * * * * * * * * * * * * //


400
(
6.63659109e-08
-0.0005474310626
-0.0008894840257
-0.001016978522
-0.0009381182791
-0.0006852580548
-0.0002959722008
0.0001937468015
0.0007473758885
0.001324433
0.001879277919
0.002359048022
0.002708345489
0.002874075933
0.002814711501
0.002512265009
0.001987210484
0.001296684317
0.0006377619495
4.186165201e-05
0.0005882275458
6.929212418e-06
-0.0003568115699
-0.0004991500874
-0.0004685045375
-0.0002914381733
2.66602826e-06
0.000384512285
0.0008226853782
0.001279918527
0.001716370433
0.002080890663
0.002323108735
0.002395657246
0.002264664389
0.00192135879
0.001392491909
0.0007431203732
0.0001454755335
-0.0005172147801
0.0009524826606
0.0003080736221
-9.318017768e-05
-0.0002395168116
-0.0002334060329
-0.0001049166499
0.0001219164161
0.0004258042696
0.0007830101433
0.00116152221
0.001529540179
0.001832934718
0.002021778558
0.002047350871
0.00187451655
0.001493459288
0.0009281602923
0.0002351788325
-0.0004632916106
-0.001300268552
0.0009761901137
0.0002580174944
-0.000192232338
-0.0003445277292
-0.00035379224
-0.0002568184033
-7.423976573e-05
0.0001813549763
0.0004964251778
0.000850732561
0.001203081595
0.001510552754
0.001712345636
0.001747929973
0.001568439668
0.001150490521
0.0005059056736
-0.0003185785979
-0.001233912479
-0.002384714725
0.0004805304151
-0.0002849619156
-0.0007638715464
-0.0009155748471
-0.0009365998758
-0.0008681762346
-0.0007252758052
-0.0005083492359
-0.0002171091984
0.0001391992271
0.0005301415584
0.0009074432994
0.001199877885
0.001326558885
0.001211073667
0.0008002286648
7.997715242e-05
-0.0009176203305
-0.002127605883
-0.00365610674
-0.0006863152873
-0.001467101099
-0.001956154492
-0.002107213304
-0.002149995127
-0.002126646711
-0.002042267134
-0.001879647566
-0.001617535803
-0.001245503248
-0.0007790874575
-0.0002628276124
0.0002206528639
0.000561521529
0.000637865995
0.0003415550011
-0.000393006242
-0.001564043318
-0.003134828838
-0.005142066399
-0.002661785927
-0.003423495658
-0.003915361751
-0.004080743553
-0.004178115861
-0.004247172781
-0.004278193692
-0.004229140013
-0.004047537189
-0.00368958423
-0.003140730293
-0.002426731064
-0.001633486382
-0.0009034180458
-0.0004248112736
-0.0003986793902
-0.0009882280498
-0.002260568499
-0.004232728974
-0.006828308145
-0.005554986963
-0.006269911449
-0.006768196368
-0.00698214314
-0.007195534793
-0.007443436412
-0.007697146492
-0.007882215484
-0.007902183879
-0.007660626404
-0.007087359042
-0.006159501966
-0.00494375298
-0.003604874344
-0.002413944545
-0.001714528448
-0.001843215957
-0.003015029991
-0.005368465312
-0.008662260884
-0.009435211816
-0.01008154841
-0.01059841634
-0.01091065572
-0.01132605902
-0.01187594552
-0.01251132616
-0.0131197055
-0.01354786929
-0.01362344229
-0.01318256527
-0.01212120833
-0.01042811203
-0.008256643468
-0.005956416351
-0.004061994212
-0.003190259704
-0.003843160855
-0.006426557178
-0.01049174642
-0.01431698312
-0.01487597473
-0.01542296449
-0.01588220872
-0.01659004709
-0.01758018054
-0.01878704438
-0.02005918079
-0.02117767372
-0.02187373237
-0.0218575133
-0.02087239618
-0.01877205313
-0.01562022463
-0.01179519655
-0.008037458563
-0.005360016943
-0.00476027582
-0.007181296967
-0.01197937886
-0.02015449326
-0.02060472096
-0.02117491157
-0.02179691672
-0.02285227301
-0.02439053143
-0.02633940312
-0.02851379366
-0.03062774077
-0.03230368065
-0.03309544102
-0.03254089108
-0.03028266804
-0.02617886549
-0.02052505905
-0.01420408717
-0.008691695475
-0.005726765138
-0.007219411301
-0.01246655867
-0.02685652141
-0.02716228021
-0.02770271698
-0.02842313366
-0.02978933447
-0.03188927389
-0.03465906188
-0.03788982843
-0.04123411827
-0.04420524838
-0.04618832602
-0.04647897634
-0.04446327674
-0.03966022363
-0.03212120807
-0.02269893022
-0.01326673597
-0.006486095152
-0.005808786594
-0.01076538246
-0.03433488091
-0.03441829079
-0.03478962944
-0.0354047128
-0.0368920243
-0.03941017743
-0.04292022293
-0.04719786092
-0.05184025846
-0.05625857692
-0.05967993671
-0.06119110188
-0.0597797265
-0.05465597206
-0.04544124759
-0.03269988746
-0.01845326612
-0.0062460727
-0.001674116082
-0.004873750708
-0.04261002122
-0.04227959367
-0.0421958139
-0.04229613463
-0.04351388102
-0.04611657734
-0.05009979553
-0.0552205697
-0.06101525581
-0.06679637072
-0.07164031819
-0.07441321961
-0.07383277992
-0.06867509866
-0.0580721602
-0.04206203177
-0.02244024027
-0.003257407352
0.007346886857
0.008341282721
-0.05201052583
-0.05076118045
-0.04967800497
-0.04857910465
-0.04892697022
-0.05112039955
-0.05517309861
-0.06079645121
-0.06743576314
-0.07429013381
-0.08028301399
-0.08407646827
-0.08413090065
-0.07883778609
-0.06684304766
-0.04752365519
-0.02212768287
0.00550158091
0.02471518347
0.03352722359
-0.06365612451
-0.06018942228
-0.05709756965
-0.0537646211
-0.05246576558
-0.05368043669
-0.05736528657
-0.06313848984
-0.07026296632
-0.07780143204
-0.08449312275
-0.0887863358
-0.08889865398
-0.08283992741
-0.06885101029
-0.04562103134
-0.01375170835
0.02441672476
0.05553947833
0.07735571877
-0.08018667967
-0.07107523723
-0.06412149661
-0.05716580355
-0.05343196664
-0.05321605584
-0.05625981943
-0.06191485136
-0.06926000262
-0.07711799437
-0.08401325869
-0.08815271493
-0.08748114503
-0.07965686216
-0.06247970701
-0.03405061846
0.005564772717
0.05859395254
0.1058229924
0.1480677002
-0.1105080641
-0.08585537224
-0.07160734253
-0.05897238116
-0.05191479088
-0.04988454704
-0.05210436755
-0.05751053312
-0.06486136643
-0.07271025274
-0.07934167203
-0.08271496712
-0.08052068977
-0.06988758895
-0.04823265166
-0.01272268432
0.03823609491
0.1071320639
0.177978627
0.2564764656
-0.1684382396
-0.09990953287
-0.0750096278
-0.05479925684
-0.04462040881
-0.04158695391
-0.04371959955
-0.04938354363
-0.05701921118
-0.06497278637
-0.07136365461
-0.07398192431
-0.07013071675
-0.05701419071
-0.03102878876
0.01192925471
0.07559944604
0.1664042145
0.2761619932
0.4377042564
-0.3984295209
-0.1381006816
-0.07497179036
-0.04708980795
-0.03355088759
-0.03003170577
-0.03280392635
-0.03926675344
-0.04756055432
-0.05594111238
-0.0625021273
-0.06503119163
-0.06099642361
-0.04697021356
-0.01875700167
0.02993538194
0.1069556388
0.2334272282
0.4198801833
0.780023365
)


// ************************************************************************* //
