/*--------------------------------*- C++ -*----------------------------------*\
  =========                 |
  \\      /  F ield         | OpenFOAM: The Open Source CFD Toolbox
   \\    /   O peration     | Website:  https://openfoam.org
    \\  /    A nd           | Version:  13
     \\/     M anipulation  |
\*---------------------------------------------------------------------------*/
FoamFile
{
    format      ascii;
    class       scalarField;
    location    "1.5";
    object      p_all;
}
// * * * * * * * * * * * * * * * * * * * * * * * * * * * * * * * * * * * * * //


400
(
1.130372872e-08
-0.0002504057186
-0.0003016391967
-0.0001440039066
0.0001868171839
0.000657607899
0.001236793129
0.001898504366
0.002621754476
0.003388037216
0.004177573063
0.004972521439
0.005746865841
0.006471411357
0.007110062014
0.00762003981
0.00795549402
0.00807895787
0.007972838266
0.007655826359
0.0002734788747
6.0869461e-06
-7.357777248e-05
5.596489659e-05
0.0003495851849
0.0007805997289
0.001323337689
0.001954840425
0.002654038341
0.003400405771
0.004173186134
0.004946980431
0.00569525011
0.00638586451
0.006982241008
0.007444752689
0.007734560627
0.007821475469
0.007679378811
0.007337498156
0.0003217508355
4.664994149e-05
-4.854069192e-05
7.25005919e-05
0.0003503368266
0.000763734458
0.001291595082
0.00191366177
0.002609868264
0.003359172367
0.004138507469
0.004921343521
0.005677072316
0.006370437638
0.006962231943
0.007411610116
0.007681346449
0.00774602501
0.007566737665
0.007190833237
9.807504795e-05
-0.0001832529685
-0.0002852147513
-0.0001590143846
0.0001244867266
0.0005456499586
0.001085962597
0.001727799858
0.002452748551
0.003240070167
0.004065324764
0.004899641353
0.005708156632
0.006450590377
0.007082029777
0.007556162458
0.007831656755
0.007881740958
0.007657362314
0.007232350002
-0.0004294248941
-0.0007056972263
-0.0008013725916
-0.0006547061037
-0.0003461872148
0.0001053093351
0.0006834334645
0.001373376284
0.002158965173
0.003020428781
0.00393230394
0.004863253851
0.005772725492
0.006612955142
0.007329569048
0.007866234983
0.008173144715
0.008219593346
0.00794911205
0.00746386281
-0.001289018325
-0.001557114577
-0.001640069778
-0.001459727062
-0.001108390184
-0.0006049632572
3.619677651e-05
0.0008035580191
0.001684096302
0.002659959847
0.00370502018
0.004786040076
0.00585461588
0.006852599731
0.007711229273
0.00835791263
0.008728171069
0.008783205738
0.00845613911
0.007881263318
-0.002513756444
-0.002781563251
-0.00285121357
-0.002627630125
-0.002219107014
-0.001645553137
-0.0009192530307
-4.749682693e-05
0.0009613589175
0.002092840699
0.003320230776
0.004615257537
0.005914391498
0.007146998526
0.008223813899
0.009046895887
0.009526885218
0.009608307599
0.009202890681
0.008485912566
-0.004152404705
-0.004435555153
-0.004496651534
-0.004224931283
-0.003750359962
-0.003094958085
-0.002268460376
-0.001272162564
-0.0001071554282
0.001219400221
0.002689924547
0.004259199207
0.005873370251
0.007440277522
0.008841807357
0.009941304811
0.010607133
0.01074973164
0.01023537125
0.009295164822
-0.006273656513
-0.006592708065
-0.006654416708
-0.006334359547
-0.005792074447
-0.005053035616
-0.004123595475
-0.002996539368
-0.001661897579
-0.0001153112239
0.001635005616
0.00355431166
0.005582328743
0.007611412121
0.009488854125
0.01102184505
0.01200794933
0.01228913085
0.01163640999
0.01035658443
-0.00897043843
-0.009348051779
-0.009422178931
-0.009056843212
-0.008453046865
-0.007641580462
-0.0066243776
-0.005382579215
-0.003890291026
-0.002124585738
-7.450181049e-05
0.00224365491
0.004780528517
0.007422439765
0.009983522386
0.01219716347
0.01374681984
0.01434044739
0.01355159009
0.011781755
-0.01236810455
-0.01282396161
-0.0129207971
-0.01251196548
-0.01185888961
-0.01100048187
-0.009933476
-0.008624475649
-0.0070270817
-0.00509242983
-0.002778288439
-6.529935229e-05
0.003036545976
0.006436650289
0.009941981201
0.01321026885
0.01575680538
0.01703930691
0.01622969825
0.01382114292
-0.01664189575
-0.01718036543
-0.01729861125
-0.01683566796
-0.01614408584
-0.0152745662
-0.0142183641
-0.01292611047
-0.01132895922
-0.009347823827
-0.006898193697
-0.003898443637
-0.0002908919372
0.003931826101
0.008643505747
0.01347880982
0.01775027249
0.02048602879
0.02007158642
0.01701167854
-0.02205363906
-0.02263246465
-0.02273562013
-0.02217132096
-0.02143213796
-0.02058286673
-0.01960830798
-0.01844389783
-0.01700205256
-0.01517775395
-0.01284376803
-0.009840435021
-0.005983730319
-0.001082811758
0.004963021354
0.01193968096
0.0190281325
0.02462551713
0.02567199026
0.02243960632
-0.02903037692
-0.02948390463
-0.02944874157
-0.028650699
-0.02779729542
-0.02696122512
-0.0261145712
-0.02517871314
-0.02405714067
-0.02263465556
-0.02075755834
-0.01819546667
-0.01459265491
-0.00949021846
-0.002309368188
0.007227583521
0.01848534501
0.02918741132
0.03389458306
0.03216681377
-0.03832481318
-0.03816329477
-0.03766489462
-0.0363260472
-0.03517222274
-0.03424936891
-0.03349392873
-0.03280758512
-0.03209501498
-0.03125374978
-0.03013405072
-0.02846347064
-0.02573115084
-0.02109382857
-0.01333324628
-0.001214785888
0.01544629414
0.03418108004
0.04629658286
0.04991239627
-0.05143196018
-0.04935617243
-0.04762826907
-0.04510067196
-0.04323293473
-0.04194716583
-0.04108868631
-0.040513449
-0.04012118817
-0.0398303346
-0.03951239723
-0.03887669096
-0.0372952858
-0.03351526198
-0.02561542038
-0.01109952166
0.01175791328
0.04161198554
0.06640028711
0.08216780395
-0.0711383234
-0.06367818529
-0.05906036718
-0.0541818968
-0.05092217454
-0.04883105232
-0.0475512058
-0.04682845027
-0.04651439542
-0.04651442297
-0.04668724175
-0.04668606902
-0.04574575472
-0.04230058111
-0.03371881319
-0.01627591827
0.01359836986
0.05748634396
0.1010011016
0.1385818123
-0.1057228031
-0.08286384151
-0.07190819088
-0.06245623475
-0.05661993288
-0.05307709257
-0.0510042192
-0.04990518332
-0.04946510925
-0.04947527361
-0.04968282335
-0.04958550777
-0.04818722645
-0.04349812419
-0.03232097088
-0.009881659738
0.02898932011
0.08963961749
0.1580522167
0.2332049574
-0.1670163184
-0.09988353055
-0.07897941935
-0.0625891747
-0.05411848571
-0.04983645446
-0.04782786276
-0.04709812836
-0.04709212242
-0.04743594537
-0.04771830286
-0.04723311432
-0.04471318083
-0.03749050545
-0.02210222992
0.00753300883
0.05847621332
0.1403818648
0.2462890238
0.4081349752
-0.3964713126
-0.1381296138
-0.07942408464
-0.05586315391
-0.04445708676
-0.04010258179
-0.03915979866
-0.03966644386
-0.04074783406
-0.04188707335
-0.04254352546
-0.04185890978
-0.03838781607
-0.02969158315
-0.01086191811
0.02586661653
0.09106887163
0.2089540229
0.3915513275
0.7517001772
)


// ************************************************************************* //
