/*--------------------------------*- C++ -*----------------------------------*\
  =========                 |
  \\      /  F ield         | OpenFOAM: The Open Source CFD Toolbox
   \\    /   O peration     | Website:  https://openfoam.org
    \\  /    A nd           | Version:  13
     \\/     M anipulation  |
\*---------------------------------------------------------------------------*/
FoamFile
{
    format      ascii;
    class       vectorField;
    location    "30.48";
    object      U_all;
}
// * * * * * * * * * * * * * * * * * * * * * * * * * * * * * * * * * * * * * //


400
(
(1.096135208e-05 -3.786178322e-05 0)
(-0.0006661413846 0.0004130356304 -1.548418756e-23)
(-0.002185381495 0.0009203889081 0)
(-0.004047824557 0.001312774958 0)
(-0.005971847621 0.001535060163 6.841332962e-25)
(-0.007762751908 0.001569842257 4.151644085e-24)
(-0.009284505266 0.001423557245 -7.360430168e-24)
(-0.01043589628 0.00111971643 7.544013132e-24)
(-0.01113676851 0.0006960769916 -2.096404579e-25)
(-0.01132706882 0.0002030753584 -3.996201506e-24)
(-0.01097173557 -0.0003002317338 5.805273426e-24)
(-0.01007229776 -0.0007475116745 -5.930911735e-23)
(-0.008679857757 -0.001075557288 -6.554058132e-23)
(-0.006902839303 -0.001233040235 -7.785733745e-23)
(-0.004910733365 -0.001192636643 4.574461816e-24)
(-0.002927235329 -0.0009619208499 -4.138824295e-24)
(-0.001205308244 -0.0005912138586 -1.999339424e-22)
(-1.907880077e-05 -0.000169886052 0)
(0.0005181465289 0.0001720823783 1.512048467e-25)
(0.000222749326 0.0003059770479 -2.584556854e-24)
(-0.000263383646 0.0008289245328 1.385271095e-25)
(-0.002703317794 0.003383808145 1.558165748e-23)
(-0.006907258703 0.005604461958 1.550837468e-25)
(-0.0119522703 0.007008165344 -8.486858057e-25)
(-0.01713496592 0.007553735717 1.160876462e-24)
(-0.02197525157 0.007294165065 1.305530411e-23)
(-0.02611063842 0.006321867045 1.401788825e-24)
(-0.02926551069 0.004754174232 -7.29538543e-24)
(-0.03122658676 0.002737142429 1.015920159e-23)
(-0.03184186924 0.0004524076087 4.511790852e-24)
(-0.03102748622 -0.001884130694 -6.320687399e-24)
(-0.02879305818 -0.004023005607 2.961549678e-24)
(-0.0252713001 -0.005708325133 3.896252868e-23)
(-0.02073189107 -0.006707380253 -1.955213519e-24)
(-0.01558959287 -0.00685411621 3.755385449e-24)
(-0.0103851211 -0.006097449388 -9.744054092e-23)
(-0.005730274161 -0.004546182002 9.640743887e-23)
(-0.00223337589 -0.002507423429 -3.966140865e-25)
(-0.0001817832627 -0.0005023816512 4.066167661e-25)
(8.343385303e-05 0.0006099190045 0)
(-0.0004188265675 0.002935050995 -2.912666939e-25)
(-0.004647864713 0.008803956404 1.705019355e-23)
(-0.01137191255 0.01324034249 -8.25545352e-24)
(-0.0193271968 0.01579194801 -2.071010171e-25)
(-0.02747397628 0.01652990722 2.034551265e-25)
(-0.03511760724 0.0156443347 7.241220202e-27)
(-0.04171323655 0.01335991382 -1.233872449e-24)
(-0.04683548596 0.00991973364 -4.559818073e-25)
(-0.05014964992 0.005602422017 -1.063773075e-23)
(-0.05141208283 0.000744434784 0)
(-0.05047771162 -0.004241743853 0)
(-0.04733686858 -0.008887132059 2.671724383e-23)
(-0.04215911946 -0.01268170235 2.813698615e-23)
(-0.03531425345 -0.01513598104 -1.64661385e-24)
(-0.0273898807 -0.01586183096 4.847383423e-23)
(-0.0191700118 -0.01467329213 9.422264669e-23)
(-0.01156088728 -0.01169357512 3.978753913e-23)
(-0.005465408358 -0.007450735651 4.151833605e-25)
(-0.001451102354 -0.002936051424 1.068646331e-25)
(-9.072761396e-05 0.0002258669376 0)
(-0.0005024622549 0.006045308762 -4.251755412e-23)
(-0.006402710856 0.01637065404 -1.695238419e-23)
(-0.01553494639 0.02355919601 8.182314848e-24)
(-0.0262789832 0.02744146934 0)
(-0.03728726976 0.02832086615 0)
(-0.04769012273 0.02658758702 0)
(-0.05679633567 0.02263109597 -4.510154401e-26)
(-0.06405351801 0.01683602643 -2.129375203e-24)
(-0.06901048057 0.009622163259 0)
(-0.07130794812 0.001491075414 1.637165102e-24)
(-0.07070822281 -0.006936438146 2.803859363e-25)
(-0.06713011217 -0.01493009048 -2.811710104e-25)
(-0.060698815 -0.02166716265 0)
(-0.05180731236 -0.02631593107 4.134735995e-23)
(-0.0411497748 -0.02816058935 -4.683051293e-23)
(-0.02971960917 -0.02677362418 -2.763511449e-23)
(-0.01873711515 -0.02221523888 -3.963948047e-23)
(-0.009488006464 -0.01521919106 7.795864928e-25)
(-0.00297687545 -0.007298193211 9.787060193e-23)
(-0.0002318793315 -0.0008661777336 0)
(-0.0005316101471 0.01009495433 4.27243365e-23)
(-0.007983549927 0.02595203937 4.780761784e-25)
(-0.0193967708 0.03642861577 -4.671570749e-25)
(-0.03282365027 0.04185497263 0)
(-0.04664664529 0.04289462381 7.778449002e-25)
(-0.05985198786 0.04020053985 -7.670597977e-25)
(-0.07163255274 0.03434726124 3.670894201e-23)
(-0.08132711507 0.02585654297 1.846764115e-23)
(-0.08836559495 0.01527295042 6.235034983e-24)
(-0.09225427949 0.003246179811 -1.639072421e-24)
(-0.09260339884 -0.009407738478 0)
(-0.08917518791 -0.02167463612 4.372866313e-25)
(-0.08195946992 -0.03236727208 1.009768563e-23)
(-0.07126858638 -0.04021230765 -4.350861212e-23)
(-0.05781998107 -0.0440202753 1.933837188e-24)
(-0.04278568456 -0.04294813169 4.220341446e-23)
(-0.02775441474 -0.03683335008 -3.84667046e-25)
(-0.01455057939 -0.02652714154 0)
(-0.004859448694 -0.01408452349 5.436526181e-23)
(-0.0003641468111 -0.002846958309 -2.564737233e-22)
(-0.0005272183887 0.01499919053 9.838527337e-23)
(-0.009377876114 0.03739000641 -4.905441451e-25)
(-0.0228817084 0.05170193701 0)
(-0.03883023711 0.05894150959 0)
(-0.05538629198 0.06025543489 -8.730665636e-23)
(-0.0714284207 0.05661873936 -8.497676107e-23)
(-0.08606613714 0.04880147822 -4.066012794e-23)
(-0.09855041274 0.03743967212 -1.503669537e-23)
(-0.108194059 0.02315979142 -5.365519924e-24)
(-0.1143439947 0.006709717545 -8.173110236e-24)
(-0.116404155 -0.01093280183 6.599113413e-24)
(-0.1138933033 -0.0284892614 8.823003901e-24)
(-0.1065483053 -0.04437022254 -1.892296463e-23)
(-0.0944677047 -0.05675307018 4.592168644e-24)
(-0.07826830009 -0.06378271876 0)
(-0.05922875747 -0.06393471369 -1.574477559e-23)
(-0.03933969216 -0.05653797415 -2.378954946e-26)
(-0.02114182123 -0.04235797008 0)
(-0.007318679589 -0.02398224133 -1.520310793e-22)
(-0.0005216139957 -0.005925540917 6.055581373e-22)
(-0.0004990806394 0.02064563019 -9.771508008e-23)
(-0.01052946068 0.05045410242 2.831677112e-22)
(-0.02582945351 0.06912474277 1.526709557e-22)
(-0.04402118046 0.07849216987 3.618817757e-24)
(-0.06310710861 0.0802943685 -7.319265464e-23)
(-0.08190369476 0.07588008428 9.042039492e-23)
(-0.0994772196 0.0662166396 -3.589756186e-24)
(-0.1150222741 0.05201677836 -1.728934371e-24)
(-0.1277514247 0.0339235172 2.523807203e-24)
(-0.1368467548 0.01270237082 7.380861786e-24)
(-0.1414705528 -0.01058768301 -6.498974612e-24)
(-0.1408243416 -0.03446001485 -9.784063001e-24)
(-0.1342741592 -0.05692741918 -3.261771727e-23)
(-0.1215446401 -0.0755328213 -3.659039716e-23)
(-0.1029669488 -0.08754225333 5.640993334e-25)
(-0.07976345851 -0.09039176768 0)
(-0.05426666338 -0.08244486556 0)
(-0.02987152053 -0.06397717988 -2.905538062e-24)
(-0.01066281903 -0.03798785132 2.969975613e-24)
(-0.0007350904717 -0.01050087667 1.027866726e-22)
(-0.000447915811 0.02687236739 0)
(-0.01134918828 0.06480723494 2.001969351e-22)
(-0.02801588754 0.088295721 8.962061462e-23)
(-0.04799838777 0.1001230034 0)
(-0.06920575789 0.102707181 1.569735435e-22)
(-0.09044340021 0.09781537209 0)
(-0.1107827776 0.08661070732 -1.428305689e-22)
(-0.1294089405 0.06983929181 6.515081776e-24)
(-0.1454766971 0.04808223209 0)
(-0.1580346995 0.02201758996 0)
(-0.1660128636 -0.007334286872 -1.37428494e-24)
(-0.1682666885 -0.03838813817 -9.315506786e-25)
(-0.1637060314 -0.06883941288 1.491814279e-22)
(-0.1515204814 -0.09558235202 -4.704642968e-23)
(-0.1315131189 -0.1148294342 -2.56046012e-24)
(-0.1045593422 -0.122569923 1.534217734e-24)
(-0.07309331306 -0.1155514348 -1.558418917e-24)
(-0.04135010811 -0.09283088879 0)
(-0.0152522619 -0.05740752709 3.203537538e-24)
(-0.001044305279 -0.01714710723 -1.012843148e-21)
(-0.000374466766 0.03346287841 0)
(-0.01175002733 0.07998879514 -1.128141301e-22)
(-0.02920699431 0.1086385769 -6.190838617e-22)
(-0.05031730256 0.123222838 -3.755149247e-22)
(-0.07296296274 0.1269091627 0)
(-0.09598933118 0.1219250915 4.119290906e-22)
(-0.1185270276 0.109634494 1.260852003e-22)
(-0.1398142827 0.09078221235 -5.581578072e-24)
(-0.1590217695 0.06581382039 5.55395226e-24)
(-0.1751457006 0.03520883693 0)
(-0.1869555954 -0.0001965897784 2.912020829e-23)
(-0.1930168684 -0.03889726698 4.69557166e-24)
(-0.1917806113 -0.07843850892 -1.076722547e-22)
(-0.1817870906 -0.1151860868 8.00337685e-23)
(-0.1620567302 -0.1442594534 -2.419572418e-22)
(-0.1327059408 -0.1598543686 0)
(-0.09577868979 -0.1563108416 0)
(-0.05601621393 -0.1302977598 0)
(-0.02147854387 -0.08381114102 0)
(-0.001500380203 -0.02665510149 5.571761146e-22)
(-0.0002873920102 0.04016059723 0)
(-0.01169357949 0.09543568859 -3.492861523e-22)
(-0.02924433391 0.1294067988 8.932478285e-22)
(-0.05060938188 0.1469293054 3.617026579e-22)
(-0.07370069125 0.1519742789 0)
(-0.09745133493 0.1472752828 -3.862398847e-22)
(-0.121106773 0.1344187927 -3.174325139e-23)
(-0.1440322426 0.1141390629 3.333014316e-22)
(-0.1655140715 0.08669994082 1.769428378e-22)
(-0.1846245922 0.05229125391 -4.060051176e-23)
(-0.200132319 0.01141731796 1.656815316e-23)
(-0.2104619837 -0.03471396176 -8.264964745e-24)
(-0.213720596 -0.08376525079 3.371762373e-22)
(-0.2078212999 -0.1318751663 0)
(-0.190823617 -0.1732750898 2.42074136e-22)
(-0.1616333622 -0.2002587968 5.774234384e-24)
(-0.1211660987 -0.2040116582 -5.860345299e-24)
(-0.07384978487 -0.1772115734 1.548266008e-22)
(-0.02971781771 -0.1188639605 -5.434902495e-24)
(-0.002179540151 -0.04005389883 0)
(-0.0002117241133 0.04671621685 0)
(-0.0112500147 0.110549374 0)
(-0.02815624064 0.1497349162 -5.022598806e-22)
(-0.04874477345 0.1701511251 -1.880946379e-23)
(-0.0710008281 0.1766251036 2.038325243e-23)
(-0.09399445922 0.17245212 -2.014258372e-23)
(-0.1171433611 0.1594866852 -2.316827615e-23)
(-0.1400178745 0.138480234 -3.029740897e-22)
(-0.1621328119 0.109515945 6.698594031e-23)
(-0.1827958292 0.07245188829 4.513063054e-23)
(-0.2009834843 0.02734944184 -4.577604407e-23)
(-0.2152269551 -0.02508670487 0)
(-0.223556144 -0.08298314034 -7.839234698e-23)
(-0.2234631299 -0.1427252781 0)
(-0.212067838 -0.1981815723 -3.739462852e-22)
(-0.1867433386 -0.2400768203 5.244764862e-22)
(-0.1464437166 -0.2560767996 0)
(-0.09394558749 -0.2331204783 -1.493817707e-22)
(-0.04021996263 -0.16396104 1.937367955e-22)
(-0.003201094893 -0.05861051529 -3.411348041e-22)
(-0.0002015467893 0.0529756758 0)
(-0.01067264433 0.1248168126 9.182689959e-22)
(-0.02628451243 0.1687418839 -2.440632308e-23)
(-0.04501113802 0.1916448856 9.193162025e-22)
(-0.06494604507 0.1992915005 -2.512033266e-23)
(-0.0853663644 0.195609909 2.838788208e-23)
(-0.1059306541 0.1827882826 -2.812874778e-23)
(-0.1264925207 0.1616580912 -1.660888441e-23)
(-0.1468998012 0.1321761177 -5.260138587e-22)
(-0.1668459462 0.09389649475 -8.906478032e-24)
(-0.1857304425 0.04640591667 9.660042586e-24)
(-0.2024783102 -0.01023758855 3.313033253e-22)
(-0.2154155913 -0.07499785817 -5.820646191e-22)
(-0.2220210742 -0.1450307698 0)
(-0.2188032729 -0.2146755927 8.88713586e-22)
(-0.2016257689 -0.2740011331 -4.940708933e-22)
(-0.1668638956 -0.307580673 -1.572165396e-23)
(-0.1140219658 -0.2953807076 0)
(-0.05288478537 -0.2195798977 -1.890004713e-22)
(-0.004749182976 -0.08377263916 3.360408954e-22)
(-0.0003642053481 0.05902302216 1.550982868e-23)
(-0.01049578532 0.1379877606 -8.764025987e-22)
(-0.02441398946 0.1856798759 -1.157040709e-21)
(-0.0402673832 0.2101378846 -8.628821735e-22)
(-0.05630747414 0.2182343217 0)
(-0.07214877795 0.2146185382 3.513748738e-23)
(-0.08779245974 0.2018788271 -7.294752347e-23)
(-0.1034565515 0.1810003332 5.867797051e-23)
(-0.1193986859 0.1518996396 3.021320318e-22)
(-0.1357934746 0.1139151046 -1.128180602e-23)
(-0.1526085655 0.06621440915 0)
(-0.1694524714 0.008177450091 -3.603880672e-22)
(-0.1852763779 -0.06015956554 7.515578216e-22)
(-0.1980451357 -0.1372743429 8.831604989e-22)
(-0.2043548561 -0.2189257927 -5.296533216e-22)
(-0.1990979209 -0.295970861 5.162600034e-22)
(-0.1760606178 -0.3514068028 1.078177383e-23)
(-0.1300890846 -0.3584146305 -1.095491531e-23)
(-0.06688802138 -0.2843272883 -8.217071872e-23)
(-0.007083316029 -0.1169962855 0)
(-0.0009095848969 0.06540029059 -1.911459051e-23)
(-0.01167597996 0.150281311 -1.326948096e-21)
(-0.0238889565 0.2000654898 1.094220193e-21)
(-0.03601361276 0.2244211728 6.734839011e-22)
(-0.04657336127 0.2316583164 6.014551089e-22)
(-0.05577071478 0.227238936 6.643869262e-22)
(-0.06411283348 0.2141771674 -4.458619761e-23)
(-0.07227603018 0.1936492517 -3.461296795e-22)
(-0.08097017238 0.1656027793 2.152138942e-22)
(-0.09087238528 0.129270804 0)
(-0.1025552159 0.08353099072 0)
(-0.1163626818 0.0272003428 2.655373721e-22)
(-0.1321594027 -0.04061978234 8.194350018e-23)
(-0.1489256416 -0.1200125308 -2.821579735e-22)
(-0.1641287808 -0.2089297546 -5.411215062e-23)
(-0.1727880371 -0.3006989189 1.301951927e-22)
(-0.1670313144 -0.379332554 -3.400415451e-22)
(-0.1365293348 -0.4136448281 -1.594684357e-23)
(-0.08018252076 -0.3538322927 8.205842152e-23)
(-0.01050762179 -0.1594128985 -6.032324368e-22)
(-0.002260505724 0.07348874915 0)
(-0.01580363062 0.1626519252 2.145848013e-21)
(-0.02665059135 0.2117900991 0)
(-0.0342236564 0.2333942938 -1.351790964e-21)
(-0.03759433139 0.2377762564 6.184077973e-23)
(-0.03799727103 0.2312549876 -6.193012367e-22)
(-0.03668313214 0.2171896346 -4.756229246e-22)
(-0.03489087559 0.1968933041 8.301161125e-22)
(-0.03378891553 0.1703342115 -1.885677381e-22)
(-0.03449930915 0.1367221872 0)
(-0.03811626735 0.09479689916 0)
(-0.04565044788 0.04304308374 2.410627751e-23)
(-0.05790853959 -0.0201375673 -6.007147787e-22)
(-0.07514644316 -0.09620625424 -4.309528315e-22)
(-0.0964521542 -0.1855553766 4.637822938e-22)
(-0.1183465947 -0.2853565407 -6.488645588e-22)
(-0.1332717845 -0.3838384056 9.119826645e-23)
(-0.126535244 -0.4504356092 2.938219254e-23)
(-0.08899159097 -0.4198533793 5.660518388e-22)
(-0.01526918216 -0.21117183 6.020956799e-22)
(-0.005180905825 0.08598041636 0)
(-0.0252555829 0.1766289561 1.465581293e-22)
(-0.03483425533 0.2205958875 -4.917091622e-23)
(-0.03640042096 0.235485608 7.642841018e-22)
(-0.03018521136 0.2343403441 -7.005293618e-22)
(-0.01916625742 0.2241601005 4.746427156e-23)
(-0.005615668227 0.208352374 -1.018600823e-22)
(0.008569053885 0.1881239943 -3.389851846e-22)
(0.02179828965 0.163391111 2.062803393e-22)
(0.03262724889 0.133324346 0)
(0.03958404062 0.09664100383 0)
(0.0411696204 0.05174075011 -2.902645478e-22)
(0.03578436301 -0.003255195911 0)
(0.02198141449 -0.07058340967 -5.512148589e-22)
(-0.00126522812 -0.1525733703 -1.492345949e-23)
(-0.03310502048 -0.250594824 2.559694611e-23)
(-0.06909261521 -0.3599339961 2.203064807e-22)
(-0.09227843836 -0.4575423008 4.788559099e-24)
(-0.08718096768 -0.4698127713 -5.789491924e-22)
(-0.02103127864 -0.2698971186 0)
(-0.0111163187 0.1085974936 0)
(-0.04248908036 0.1947150909 -8.8483975e-22)
(-0.04795544282 0.2258193912 -5.410994473e-22)
(-0.0391956163 0.2282133389 4.543772991e-22)
(-0.01877865885 0.2182325812 -1.709990489e-24)
(0.00766387419 0.2028218252 -4.561000156e-23)
(0.03667943542 0.184761819 5.696619314e-22)
(0.06582945284 0.164711729 -2.766863427e-23)
(0.09327076523 0.1423127999 -2.069762152e-22)
(0.11738863 0.1166275447 3.142186551e-23)
(0.1365456678 0.08641154476 -3.425890581e-23)
(0.1489664666 0.05017683209 -3.690568665e-23)
(0.1525271677 0.006159323805 3.205611493e-22)
(0.1449363453 -0.04796111939 6.119563178e-22)
(0.1235156702 -0.1153051614 -5.101130288e-22)
(0.08633507955 -0.2004194628 -1.616024814e-22)
(0.03199067004 -0.3067805798 1.531340301e-22)
(-0.02362139094 -0.4239836344 7.293697068e-23)
(-0.06492419535 -0.4871611878 1.913297884e-21)
(-0.02509972594 -0.3291544032 2.95499856e-21)
(-0.02004680204 0.1460727614 -4.390181931e-23)
(-0.06416409036 0.211295573 4.417354523e-23)
(-0.05070239702 0.2177299781 1.000180758e-21)
(-0.01934114528 0.2014678806 -8.270366573e-24)
(0.02414439176 0.1809074775 0)
(0.07154088388 0.1606931987 4.363673581e-23)
(0.1190699435 0.1416494404 -2.273826898e-22)
(0.1644762979 0.1233181135 -9.027856338e-23)
(0.2062246661 0.1048117085 3.680695944e-23)
(0.2429638616 0.08507142618 -1.701641218e-23)
(0.2732203457 0.06296154036 3.429943857e-23)
(0.295253243 0.03726302753 -6.592631096e-23)
(0.3066967854 0.006535168538 -9.30385252e-23)
(0.3049735606 -0.03087760348 1.51703084e-22)
(0.2863934044 -0.07786282897 0)
(0.2470566325 -0.1399299809 1.50557381e-22)
(0.181092081 -0.2266299496 2.560017432e-22)
(0.09604439582 -0.3443894631 0)
(-0.006697670416 -0.455220988 -3.675645084e-21)
(-0.01922409093 -0.3777537275 -2.892627798e-21)
(-0.02591950641 0.2276829019 -9.514186983e-22)
(-0.03998323546 0.2238216678 -1.388969156e-22)
(0.03656135802 0.1810585223 -2.335562478e-22)
(0.1090502477 0.1451058669 -1.193732269e-22)
(0.1817190016 0.1172444888 -4.29578191e-23)
(0.2490088908 0.09627901208 9.783045329e-23)
(0.3100334311 0.0800250493 -1.40857342e-22)
(0.364620653 0.06656811659 1.29716046e-22)
(0.4126249476 0.05449177522 -8.6200309e-23)
(0.4536247276 0.04270895885 1.13218794e-25)
(0.4867875884 0.03032301336 1.527729184e-23)
(0.5107448853 0.01652906095 7.997142914e-23)
(0.5236595381 0.0005365594693 -1.811109781e-22)
(0.5231796429 -0.0186336885 -1.617132954e-22)
(0.5052322252 -0.04286475397 -4.262869301e-23)
(0.4658714257 -0.07633228944 0)
(0.3952695898 -0.1286089313 -1.846497336e-22)
(0.2916070595 -0.2208468077 8.148783459e-22)
(0.1197454832 -0.3525016882 1.631604864e-21)
(0.02670546568 -0.3775497937 2.172657533e-21)
(0.2142894537 0.1347447272 9.864969967e-22)
(0.2776311395 0.09870504369 0)
(0.4316592524 0.05810415204 -2.594302846e-22)
(0.5304749448 0.03846264796 -1.741649302e-22)
(0.6016965582 0.02623418568 0)
(0.6571198452 0.01831922796 -6.009004302e-23)
(0.7015212775 0.01313600271 6.377910117e-23)
(0.7376041429 0.009542123246 -1.80013248e-23)
(0.7669367217 0.00680446409 2.885937849e-23)
(0.7902105484 0.004464747935 2.315008339e-23)
(0.8074553926 0.002221326695 0)
(0.8182620472 -0.0001500664281 -2.87300867e-23)
(0.8216499085 -0.002723839286 0)
(0.8162393828 -0.005712661845 2.738108069e-23)
(0.7991332988 -0.009611378805 1.421651816e-23)
(0.7679986324 -0.01500254997 -5.799443083e-23)
(0.7106555788 -0.02502520131 -2.535672599e-22)
(0.6235184001 -0.04204285617 -6.918117423e-22)
(0.4230091016 -0.09182968297 0)
(0.2705674682 -0.1524021851 -2.119485358e-21)
)


// ************************************************************************* //
