/*--------------------------------*- C++ -*----------------------------------*\
  =========                 |
  \\      /  F ield         | OpenFOAM: The Open Source CFD Toolbox
   \\    /   O peration     | Website:  https://openfoam.org
    \\  /    A nd           | Version:  13
     \\/     M anipulation  |
\*---------------------------------------------------------------------------*/
FoamFile
{
    format      ascii;
    class       volScalarField;
    location    "36";
    object      p;
}
// * * * * * * * * * * * * * * * * * * * * * * * * * * * * * * * * * * * * * //

dimensions      [0 2 -2 0 0 0 0];

internalField   nonuniform List<scalar> 
400
(
9.20438333e-10
-0.000526214965
-0.001167350446
-0.001662515259
-0.001892353415
-0.001807847151
-0.001384895669
-0.0006129940878
0.0004984490812
0.001905144195
0.003513036634
0.005172089085
0.0066871696
0.007849416371
0.008486171434
0.008517162627
0.007997626416
0.007132341498
0.00625144391
0.005700007471
0.0005331774404
-1.123145678e-05
-0.0005767958359
-0.0009720377069
-0.001143911
-0.001065831482
-0.0007170500857
-8.292748321e-05
0.0008364844351
0.002011834674
0.003369720966
0.004785647922
0.006091291015
0.007102571743
0.007664961237
0.007705243159
0.007269612622
0.006528827601
0.005742742294
0.005181630047
0.001199401763
0.0005175585062
-8.003756193e-05
-0.0004409760782
-0.0005978534631
-0.0005582454467
-0.0003073059797
0.0001770759169
0.0009108235797
0.001886127749
0.003053255276
0.004309006265
0.005499776455
0.006445916221
0.006986694006
0.007034503185
0.006615329681
0.005868213055
0.004997574554
0.004266464363
0.001677158766
0.0007977249142
8.370751881e-05
-0.000320231089
-0.0005239617786
-0.0005678084786
-0.0004406146338
-0.000108166656
0.0004675869232
0.001305705322
0.002381587808
0.003608094396
0.004831894054
0.00585426526
0.006478353894
0.006572902921
0.006125789141
0.005249048073
0.004128136452
0.003096101375
0.001712687724
0.0006332485127
-0.0002232332326
-0.0007138689044
-0.001014333465
-0.001190126566
-0.001227768274
-0.001074812118
-0.0006642723321
5.702591131e-05
0.001096132692
0.002385768769
0.003769663956
0.005016882157
0.005869501284
0.006119549601
0.005686366883
0.004642638434
0.003174860455
0.001746272848
0.001095906826
-0.0001619805735
-0.001162554775
-0.001769234027
-0.00221332361
-0.002577493316
-0.002839672731
-0.002922880526
-0.002723351258
-0.002143221196
-0.001130539782
0.0002818850138
0.001943440377
0.003588036245
0.004874425815
0.005476232342
0.005194143924
0.004023526961
0.002149375086
0.0002261397676
-0.0003499857371
-0.001754320547
-0.002892424789
-0.003641881793
-0.004280618726
-0.00490235864
-0.005472242261
-0.005883894238
-0.005988703259
-0.005630120104
-0.004689658472
-0.003142946316
-0.001106478601
0.001129859833
0.003126425029
0.00438868614
0.004521941452
0.003366308473
0.001066314882
-0.001462748205
-0.002761369568
-0.004273920715
-0.005539064438
-0.00645754482
-0.00734631328
-0.00830726157
-0.009292214194
-0.01016367259
-0.01072176737
-0.01073653212
-0.009997129635
-0.008379733317
-0.005925381955
-0.002910371243
0.0001331145967
0.002495264023
0.003481556395
0.002640988261
-2.552237612e-05
-0.00327292327
-0.006222493745
-0.007800353071
-0.009176570185
-0.01028401628
-0.01147375591
-0.01285752274
-0.01437818034
-0.01587009068
-0.01707986567
-0.01769179036
-0.01737490024
-0.01586005764
-0.01304813888
-0.009132876898
-0.004693854196
-0.0006758833952
0.001809834063
0.001816100572
-0.00100640342
-0.005049801826
-0.01075580826
-0.01235179886
-0.01381056703
-0.01510512927
-0.01662147896
-0.01848918722
-0.02065204059
-0.02292462695
-0.02500386402
-0.02648299243
-0.02688982542
-0.02576559669
-0.02279955574
-0.01800163047
-0.01189871234
-0.005626376021
-0.0007994804833
0.0008790964474
-0.001635603849
-0.006444838324
-0.016321884
-0.01788341354
-0.01936977382
-0.02080101216
-0.02261061624
-0.02496294738
-0.0278178231
-0.03098247273
-0.03411346224
-0.03671686381
-0.03817186347
-0.03779996772
-0.0350228363
-0.02954898704
-0.02170315186
-0.01267246421
-0.0045653415
-9.179634912e-05
-0.001473486814
-0.006784062023
-0.02283820842
-0.02430202409
-0.02571147998
-0.02714204341
-0.02910976506
-0.03184330329
-0.0353369906
-0.03940297493
-0.04366782041
-0.04756053861
-0.05032109327
-0.0510557276
-0.04885329947
-0.04306638944
-0.03364397559
-0.0215932581
-0.009347118216
-0.0007537877762
0.0002519836481
-0.004872038987
-0.03022848414
-0.03150322818
-0.03264311519
-0.0337995924
-0.03564562024
-0.03851899871
-0.04246547995
-0.04730670351
-0.05264211287
-0.05783076412
-0.06198545846
-0.06400727684
-0.06269274815
-0.05697379726
-0.046307398
-0.0312637137
-0.01426823338
-0.0001952814881
0.004881508313
0.001288579946
-0.03852445319
-0.03943632113
-0.03995490652
-0.0403683336
-0.04163904505
-0.04426896917
-0.0483589699
-0.05372620033
-0.05992799031
-0.06624623104
-0.0716727547
-0.07492670264
-0.07453909245
-0.06905361124
-0.05739894066
-0.03951829589
-0.01741942186
0.003417626552
0.01467639419
0.01485533965
-0.048068813
-0.04820693402
-0.04745400154
-0.04639025056
-0.04646060539
-0.04836533461
-0.05222687557
-0.05781238556
-0.06459605314
-0.07175282971
-0.07813954569
-0.08229898365
-0.08252318075
-0.07701997551
-0.06423874268
-0.04344819328
-0.01589886845
0.01299667188
0.03307497137
0.04036579022
-0.05986207554
-0.05824473761
-0.0550086948
-0.05139156118
-0.0495156326
-0.05020796698
-0.05350388031
-0.05903340535
-0.06611979403
-0.07378039615
-0.08070154621
-0.08522984294
-0.08541697611
-0.07916021417
-0.06449335473
-0.0400808236
-0.006273223424
0.03229941256
0.06448453217
0.08326783183
-0.07615216618
-0.07061945168
-0.06258980574
-0.05492512574
-0.05034160499
-0.0494459963
-0.05196806264
-0.05727322814
-0.06445108127
-0.07230353708
-0.0793062003
-0.08357851227
-0.08290388467
-0.07483651778
-0.05697130944
-0.02738269319
0.01450248792
0.06543455623
0.1143367609
0.1501331167
-0.1040890511
-0.08787088955
-0.06994792828
-0.05625608043
-0.04835869386
-0.04574232445
-0.04750921898
-0.0526066166
-0.05980288149
-0.06764871646
-0.07440085277
-0.07795059752
-0.07580582369
-0.06511783598
-0.04288544659
-0.006277067566
0.04666164915
0.115240096
0.1914116056
0.2582172993
-0.1759110861
-0.114836595
-0.07359476746
-0.05189532344
-0.04118783
-0.03755986185
-0.03923201971
-0.04464197191
-0.05218981869
-0.06021566956
-0.06684085323
-0.06981158241
-0.06644619508
-0.05355891177
-0.02741715085
0.01632472877
0.08262613749
0.1772686595
0.305315481
0.4526023952
-0.3557823778
-0.1552018221
-0.07040851916
-0.04278152164
-0.03135352488
-0.02758825338
-0.02973566087
-0.03588287625
-0.04409739018
-0.05258747231
-0.05944593059
-0.06241247103
-0.05875653293
-0.04514251723
-0.01726678204
0.030751248
0.1083387764
0.2332666493
0.4347158562
0.735788819
)
;

boundaryField
{
    movingWall
    {
        type            zeroGradient;
    }
    fixedWalls
    {
        type            zeroGradient;
    }
    frontAndBack
    {
        type            empty;
    }
}


// ************************************************************************* //
