/*--------------------------------*- C++ -*----------------------------------*\
  =========                 |
  \\      /  F ield         | OpenFOAM: The Open Source CFD Toolbox
   \\    /   O peration     | Website:  https://openfoam.org
    \\  /    A nd           | Version:  13
     \\/     M anipulation  |
\*---------------------------------------------------------------------------*/
FoamFile
{
    format      ascii;
    class       scalarField;
    location    "36";
    object      p_all;
}
// * * * * * * * * * * * * * * * * * * * * * * * * * * * * * * * * * * * * * //


400
(
1.453668711e-07
-0.000547340738
-0.0008893936366
-0.001016881937
-0.0009380197959
-0.0006851676954
-0.0002958932771
0.000193823105
0.0007474630438
0.001324536416
0.001879390113
0.002359157071
0.002708443498
0.002874164609
0.002814798972
0.002512356305
0.001987300903
0.001296762843
0.0006378233456
4.191323089e-05
0.0005883177855
7.019327373e-06
-0.0003567267082
-0.0004990623454
-0.0004684055483
-0.0002913309777
2.768274343e-06
0.000384598753
0.000822758183
0.001279990869
0.00171645409
0.00208098897
0.002323216111
0.002395765026
0.002264767681
0.001921456574
0.001392581618
0.000743196314
0.0001455375577
-0.0005171528098
0.0009525726954
0.000308169726
-9.308916349e-05
-0.0002394345643
-0.000233325508
-0.0001048273242
0.0001220180363
0.0004259110155
0.000783110852
0.001161611943
0.001529622287
0.00183301683
0.002021869194
0.002047453643
0.001874629094
0.001493574824
0.0009282693998
0.0002352731964
-0.0004632127946
-0.001300189911
0.0009762753341
0.0002581118601
-0.0001921319352
-0.000344431681
-0.0003537063585
-0.0002567388257
-7.415667432e-05
0.0001814481562
0.0004965259713
0.0008508332148
0.00120317495
0.001510638212
0.001712430871
0.001748025785
0.001568551853
0.00115061471
0.0005060290899
-0.0003184681038
-0.001233816191
-0.002384620254
0.000480614954
-0.0002848782593
-0.0007637784119
-0.0009154746107
-0.0009365003757
-0.000868083461
-0.0007251888242
-0.0005082619175
-0.0002170170313
0.0001392945357
0.0005302350243
0.0009075309244
0.001199962061
0.001326648503
0.001211177372
0.0008003465314
8.009920734e-05
-0.0009175054231
-0.002127500226
-0.003656003266
-0.0006862208828
-0.001467016039
-0.00195606987
-0.002107122985
-0.002149898338
-0.002126547229
-0.002042169205
-0.001879552451
-0.001617442491
-0.001245411811
-0.0007789992962
-0.000262744392
0.0002207324266
0.0005616033906
0.0006379576094
0.0003416587566
-0.0003928957589
-0.001563933489
-0.003134721931
-0.005141960854
-0.002661686225
-0.00342339932
-0.003915272081
-0.004080656795
-0.004178026785
-0.004247078251
-0.00427809399
-0.004229037685
-0.00404743552
-0.003689486886
-0.003140640045
-0.002426648665
-0.001633409583
-0.0009033414171
-0.000424728473
-0.0003985873581
-0.0009881289442
-0.002260466008
-0.004232625048
-0.006828204284
-0.005554892701
-0.006269811774
-0.006768099252
-0.006982051237
-0.007195446184
-0.007443346468
-0.007697050904
-0.007882112722
-0.007902076078
-0.007660518915
-0.007087257799
-0.006159410219
-0.004943669693
-0.003604794633
-0.00241386245
-0.001714440436
-0.00184312225
-0.003014932102
-0.005368364746
-0.008662159559
-0.009435121464
-0.01008145367
-0.01059831915
-0.01091055978
-0.01132596626
-0.01187585435
-0.01251123212
-0.01311960417
-0.01354775929
-0.01362332698
-0.01318245115
-0.01212110148
-0.0104280144
-0.008256552469
-0.005956327133
-0.004061903051
-0.003190165559
-0.003843064049
-0.006426458588
-0.01049164699
-0.01431688898
-0.01487588241
-0.01542287005
-0.01588211247
-0.01658995119
-0.01758008586
-0.01878694859
-0.02005907951
-0.02117756365
-0.02187361414
-0.02185739168
-0.02087227745
-0.0187719415
-0.01562012036
-0.01179509699
-0.008037360749
-0.005359919307
-0.004760177953
-0.007181198896
-0.01197928034
-0.02015439382
-0.02060462524
-0.021174816
-0.02179681939
-0.02285217497
-0.02439043422
-0.02633930584
-0.02851369288
-0.03062763302
-0.03230356498
-0.03309532001
-0.03254076942
-0.03028255001
-0.02617875297
-0.0205249516
-0.01420398332
-0.008691594099
-0.005726665604
-0.007219312915
-0.01246646035
-0.02685642082
-0.02716218036
-0.02770261703
-0.0284230325
-0.02978923351
-0.0318891751
-0.03465896494
-0.0378897304
-0.04123401572
-0.04420513974
-0.0461882123
-0.04647886031
-0.04446316129
-0.0396601107
-0.03212109836
-0.0226988237
-0.01326663249
-0.006485994457
-0.005808687811
-0.0107652842
-0.03433478225
-0.03441819016
-0.03478952631
-0.03540460773
-0.03689192027
-0.03941007721
-0.04292012662
-0.04719776583
-0.05184016124
-0.05625847576
-0.05967983181
-0.06119099458
-0.05977961832
-0.05465586408
-0.04544114054
-0.032699782
-0.0184531629
-0.006245972036
-0.001674017471
-0.004873652977
-0.04260992467
-0.04227949527
-0.04219571078
-0.0422960281
-0.04351377516
-0.04611647535
-0.0500996977
-0.05522047382
-0.06101515921
-0.06679627207
-0.07164021767
-0.07441311803
-0.07383267783
-0.06867499628
-0.05807205776
-0.04206192973
-0.02244013939
-0.003257308171
0.007346984335
0.008341379114
-0.05201043097
-0.05076108491
-0.04967790356
-0.04857899853
-0.04892686356
-0.05112029516
-0.05517299658
-0.06079635001
-0.06743566125
-0.07429003113
-0.08028291144
-0.08407636675
-0.08413080049
-0.07883768694
-0.06684294916
-0.04752355713
-0.0221275855
0.005501677314
0.02471527881
0.03352731788
-0.06365603134
-0.06018932836
-0.0570974695
-0.05376451582
-0.05246565866
-0.0536803303
-0.0573651803
-0.06313838326
-0.07026285834
-0.07780132389
-0.08449301611
-0.08878623198
-0.08889855358
-0.08283982957
-0.06885091443
-0.0456209367
-0.01375161476
0.02441681788
0.05553957087
0.07735581065
-0.08018658779
-0.07107514311
-0.06412139706
-0.05716570017
-0.05343186189
-0.0532159511
-0.0562597141
-0.06191474444
-0.06925989407
-0.07711788561
-0.0840131516
-0.08815261092
-0.08748104444
-0.07965676534
-0.06247961301
-0.03405052652
0.005564862282
0.05859404406
0.1058230825
0.1480677899
-0.1105079727
-0.0858552773
-0.07160724433
-0.05897228224
-0.05191469273
-0.0498844495
-0.0521042693
-0.05751043279
-0.06486126385
-0.0727101491
-0.07934156905
-0.08271486628
-0.08052059199
-0.06988749384
-0.04823255911
-0.01272259384
0.03823618382
0.1071321526
0.1779787152
0.2564765535
-0.1684381481
-0.0999094383
-0.07500953292
-0.05479916402
-0.04462031845
-0.0415868646
-0.04371950917
-0.04938345059
-0.05701911513
-0.06497268824
-0.07136355591
-0.07398182642
-0.07013062053
-0.05701409681
-0.03102869692
0.01192934472
0.07559953459
0.1664043023
0.2761620806
0.4377043438
-0.398429428
-0.1381005892
-0.07497169941
-0.04708971956
-0.03355080132
-0.03003161985
-0.03280383878
-0.03926666291
-0.04756046067
-0.05594101643
-0.06250203032
-0.06503109488
-0.06099632794
-0.04697011951
-0.01875690939
0.02993547247
0.1069557278
0.2334273163
0.419880271
0.7800234527
)


// ************************************************************************* //
