/*--------------------------------*- C++ -*----------------------------------*\
  =========                 |
  \\      /  F ield         | OpenFOAM: The Open Source CFD Toolbox
   \\    /   O peration     | Website:  https://openfoam.org
    \\  /    A nd           | Version:  13
     \\/     M anipulation  |
\*---------------------------------------------------------------------------*/
FoamFile
{
    format      ascii;
    class       surfaceScalarField;
    location    "36";
    object      phi;
}
// * * * * * * * * * * * * * * * * * * * * * * * * * * * * * * * * * * * * * //

dimensions      [0 3 -1 0 0 0 0];

internalField   nonuniform List<scalar> 
760
(
4.512943372e-06
-4.51305767e-06
-3.887769497e-05
4.339015236e-05
-0.0001313335468
9.245648652e-05
-0.0002569640693
0.0001256305062
-0.000399876739
0.0001429138602
-0.0005467161779
0.0001468398871
-0.00068563638
0.0001389217681
-0.0008049367606
0.0001193004248
-0.0008924962706
8.755838912e-05
-0.0009364685266
4.397153435e-05
-0.0009271886477
-9.279874508e-06
-0.0008599342538
-6.72544597e-05
-0.0007377266197
-0.0001222064969
-0.0005732209525
-0.0001645043176
-0.0003885295471
-0.0001846918582
-0.0002121805726
-0.0001763499633
-7.321141843e-05
-0.000138968887
6.676980259e-06
-7.988764793e-05
2.252469281e-05
-1.58475152e-05
2.25254485e-05
-4.720137144e-05
4.268892091e-05
-0.0002091816655
0.0002053707803
-0.0004725791134
0.0003558551643
-0.0008048516877
0.0004579036061
-0.001171772097
0.000509838348
-0.001541858368
0.0005169263984
-0.001885675359
0.0004827385932
-0.002174403601
0.0004080276109
-0.002379731951
0.0002928848688
-0.002475889682
0.0001401273552
-0.002443666933
-4.149966685e-05
-0.002275540644
-0.000235377082
-0.001980673185
-0.0004170730851
-0.001587888383
-0.0005572893808
-0.001144922234
-0.0006276576049
-0.0007123934644
-0.0006088781425
-0.0003521649016
-0.0004991982446
-0.0001115426386
-0.0003205108277
-6.001515719e-06
-0.0001213860127
1.652457176e-05
-0.0001116245174
0.0001543132427
-0.0004046615149
0.0004984072558
-0.0008330665946
0.0007842609697
-0.00134785122
0.000972688489
-0.001902148409
0.001064137213
-0.002452545053
0.001067323698
-0.002957828251
0.0009880210382
-0.003377787967
0.0008279847943
-0.003673756798
0.0005888534526
-0.003811493879
0.0002778647935
-0.003766081061
-8.690864703e-05
-0.003527946897
-0.0004735061279
-0.003108714357
-0.0008363030552
-0.00254512797
-0.001120876322
-0.001898991169
-0.001273795242
-0.001250902232
-0.001256966553
-0.000686457346
-0.001063642385
-0.0002760921357
-0.0007308735875
-5.340053283e-05
-0.0003440757579
-3.68766942e-05
-0.0001729282778
0.0003272420721
-0.0005924812041
0.0009179596014
-0.001176667884
0.001368447332
-0.001857639119
0.001653659278
-0.002577445937
0.001783945265
-0.003284500618
0.001774379111
-0.003930331438
0.001633850892
-0.00446779067
0.001365441743
-0.004851551845
0.0009726168488
-0.005041052513
0.0004673695825
-0.005005449344
-0.0001225072288
-0.004729948906
-0.0007490049314
-0.00422264239
-0.001343610003
-0.003520436215
-0.001823082765
-0.002691806279
-0.002102425151
-0.001833019137
-0.002115754457
-0.001054508556
-0.001842154224
-0.0004570012935
-0.001328379583
-0.0001034706353
-0.0006976078627
-0.0001403475386
-0.0002275145431
0.0005547555045
-0.0007614675678
0.001451908553
-0.00148679715
0.002093775392
-0.002317358516
0.002484219564
-0.003185593608
0.002652180353
-0.004034520299
0.002623304802
-0.004811880854
0.002411211498
-0.00546694333
0.002020506111
-0.005950095505
0.001455773809
-0.006214995322
0.0007322726214
-0.00622292265
-0.0001145769759
-0.005949078158
-0.00102284882
-0.005390855729
-0.001901833457
-0.004577011883
-0.002636926667
-0.003575597767
-0.003103839629
-0.002495816755
-0.003195537745
-0.001477337763
-0.00286063508
-0.000662726492
-0.002142992132
-0.0001580407728
-0.001202294715
-0.0002983885641
-0.0002735813057
0.0008283362996
-0.0009051018807
0.002083427313
-0.001751831243
0.002940502582
-0.002712089614
0.003444476674
-0.003710930647
0.00365102249
-0.004688592647
0.003600967358
-0.00559201874
0.00331463762
-0.006369728461
0.002798217685
-0.006969784105
0.00205583374
-0.007340379324
0.001102868386
-0.007432973389
-2.198391927e-05
-0.007208025365
-0.001247797919
-0.006644814396
-0.002465044833
-0.005754465043
-0.003527276007
-0.004595134656
-0.004263171636
-0.003283262883
-0.004507412201
-0.001990542396
-0.00415335577
-0.0009149101487
-0.003218627127
-0.0002246420796
-0.001892559775
-0.0005230306382
-0.0003092720571
0.001137606642
-0.001017255712
0.002791409264
-0.001960271678
0.003883517595
-0.003024942798
0.004509147469
-0.004131610574
0.004757690183
-0.005220323602
0.004689681388
-0.006240045333
0.00433435936
-0.007141384472
0.003699557664
-0.007872457392
0.002786909072
-0.008377352234
0.001607762389
-0.008597139218
0.0001978006561
-0.008474862834
-0.001370074823
-0.007965194947
-0.002974710656
-0.007051439295
-0.004441030567
-0.005768662134
-0.005545950165
-0.004228219179
-0.006047855913
-0.002629880806
-0.005751691234
-0.001239048057
-0.004609461708
-0.0003127142186
-0.002818890774
-0.0008357452904
-0.000332707315
0.001470312972
-0.001091921033
0.00355062164
-0.002100360487
0.004891958117
-0.003236994341
0.005645782277
-0.004420102907
0.005940796629
-0.005591983592
0.005861561463
-0.006706363617
0.005448738193
-0.007719074636
0.004712268563
-0.008581649326
0.003649484147
-0.009237278394
0.002263390428
-0.009619293245
0.0005798146261
-0.009653599201
-0.001335767588
-0.009267236952
-0.003361069092
-0.008406521148
-0.005301745006
-0.00706713002
-0.006885342525
-0.005334302492
-0.007780683746
-0.003419502641
-0.007666490057
-0.001659507867
-0.006369457241
-0.0004326062489
-0.004045794685
-0.001268352559
-0.0003426452055
0.001812958239
-0.001124676695
0.004332652611
-0.002162268781
0.005929550309
-0.003330280274
0.006813792493
-0.004547191666
0.007157703783
-0.005759698446
0.007074066751
-0.006928930504
0.006617968915
-0.008019405595
0.00580274449
-0.0089905489
0.004620627527
-0.009790154207
0.003062995777
-0.0103498452
0.001139508427
-0.01058380848
-0.001101801373
-0.01039362341
-0.003551253572
-0.00968374469
-0.006011626288
-0.008394352509
-0.008174737765
-0.006555898321
-0.009619140278
-0.004358169353
-0.009864222679
-0.002194418172
-0.008533210042
-0.000595192244
-0.005645025381
-0.001863544864
-0.0003395774634
0.002152535865
-0.001115338243
0.005108413274
-0.002142188911
0.006956399965
-0.003293344371
0.007964945508
-0.004489289024
0.008353644333
-0.005683044415
0.008267821906
-0.006845665006
0.007780589681
-0.007953955194
0.006911037412
-0.008980434373
0.005647107373
-0.009884744866
0.003967305112
-0.01060610311
0.001860868235
-0.01105732091
-0.0006505821499
-0.01112398837
-0.003484588994
-0.01067168236
-0.006463936802
-0.009574990275
-0.009271431748
-0.007779080316
-0.01141505139
-0.005401958558
-0.01224134731
-0.002847829274
-0.0110873411
-0.0008112711855
-0.007681582597
-0.002674814535
-0.0003272120462
0.002479748107
-0.001071482435
0.005852682621
-0.002047691363
0.007932606669
-0.003128403074
0.00904565592
-0.00423787761
0.009463116665
-0.005337667558
0.009367612757
-0.006411343685
0.008854266329
-0.007451439125
0.007951134939
-0.008448634038
0.006644303264
-0.009382003113
0.004900673474
-0.01020934871
0.002688212297
-0.01085566862
-4.264694683e-06
-0.01120767931
-0.003132582576
-0.01110529653
-0.006566319773
-0.01036045189
-0.01001627336
-0.00881122388
-0.01296427726
-0.006445785153
-0.01460678398
-0.003597325028
-0.013935803
-0.001089884342
-0.01018902077
-0.003764700248
-0.0003144007381
0.002794149043
-0.001012603677
0.006550884911
-0.001903461597
0.008823462127
-0.002858446997
0.01000064141
-0.003808527415
0.01041319672
-0.004727370044
0.01028645633
-0.005614248661
0.009741144204
-0.006480487286
0.008817372694
-0.007338800702
0.007502615341
-0.008193621527
0.005755494838
-0.00903041004
0.003525001673
-0.009803790993
0.0007691148302
-0.01041759248
-0.002518782648
-0.01071342196
-0.006270488397
-0.01046082524
-0.01026886983
-0.009390084913
-0.01403502231
-0.007311397596
-0.01668547268
-0.004377530683
-0.01686967279
-0.001434319031
-0.01313223319
-0.005199019517
-0.0003178714714
0.00311202026
-0.000974854835
0.007207868786
-0.001756277463
0.009604882497
-0.002531801207
0.01077616451
-0.003245552066
0.01112694714
-0.003890016325
0.01093092187
-0.00448478877
0.01033591609
-0.005062682092
0.009395265081
-0.005660315514
0.008100247973
-0.006310069455
0.00640524909
-0.00703081671
0.00424574801
-0.007814912961
0.00155320908
-0.008607565161
-0.001726129214
-0.00928027972
-0.005597770563
-0.009599565565
-0.009949583319
-0.009218050436
-0.01441654144
-0.007751979239
-0.01815154402
-0.005064043129
-0.01955760889
-0.001834022547
-0.016362254
-0.0070330384
-0.0003666924662
0.003478712628
-0.001016379151
0.007857556771
-0.001677213638
0.01026571591
-0.002220035103
0.01131898507
-0.002616239372
0.01152314901
-0.002889096324
0.01120377919
-0.003085309789
0.01053212953
-0.003261603593
0.009571558088
-0.003478100316
0.008316745879
-0.00379354862
0.006720700671
-0.004259418268
0.004711618606
-0.004909926384
0.002203715557
-0.005743788314
-0.0008922656717
-0.006692367194
-0.004649192782
-0.007569129532
-0.009072820859
-0.008011258291
-0.01397441066
-0.007475818407
-0.01868698057
-0.005464273819
-0.02156915477
-0.002250437345
-0.0195760913
-0.009283478382
-0.0005090341764
0.003987746892
-0.001220936597
0.008569459481
-0.001754251529
0.01079903047
-0.001998374349
0.01156310881
-0.001980924086
0.01150569596
-0.001775182451
0.01099803587
-0.001463889416
0.01022083669
-0.001129640584
0.00923731026
-0.0008536511212
0.008040756567
-0.0007160461061
0.006583093691
-0.0007949276837
0.00479049583
-0.001162065964
0.002570852121
-0.001871388613
-0.0001829371981
-0.002932015412
-0.003588564468
-0.004251424786
-0.00775340965
-0.005535008234
-0.01269082446
-0.00617366398
-0.01804832616
-0.005313976131
-0.02242884683
-0.002594315146
-0.02229575446
-0.01187778973
-0.0008143583773
0.004802105121
-0.001684517119
0.00943961693
-0.002046816319
0.01116132682
-0.001870111352
0.01138640514
-0.001295275535
0.01093086155
-0.0004727190279
0.01017547841
0.0004699575057
0.00927815921
0.001424510019
0.008282759097
0.002293513859
0.00717175566
0.00298300126
0.005893608317
0.003397415455
0.004376083359
0.003437596767
0.002530675084
0.003003590617
0.0002510732862
0.002009486112
-0.002594462577
0.0004281515499
-0.006172079016
-0.001594593305
-0.01066807922
-0.003525314561
-0.01611760083
-0.004268604665
-0.02168555034
-0.002691920546
-0.02387244824
-0.01456971069
-0.001349990997
0.006152095778
-0.002422315724
0.01051194109
-0.002391715978
0.01113072273
-0.001504793263
0.01049948167
-0.000117259961
0.009543329921
0.001519978357
0.008538240381
0.003237835683
0.007560300717
0.004912928953
0.006607666307
0.006443938353
0.005640748222
0.007735530998
0.004602016082
0.008687364283
0.003424250993
0.009186838234
0.002031203302
0.009104566604
0.0003333445651
0.008296743713
-0.001786634233
0.006624182379
-0.004499515287
0.004037934317
-0.008081837381
0.0008341760093
-0.01291384921
-0.001890342672
-0.01896103486
-0.002258149029
-0.02350463752
-0.01682785997
-0.002135473999
0.008287569019
-0.002922889406
0.01129935905
-0.001689785946
0.009897615753
0.0005298536365
0.00827983868
0.003108035583
0.00696514668
0.005754413977
0.005891863025
0.008316034507
0.004998683039
0.01069629561
0.00422741064
0.012820818
0.003516229789
0.01461627067
0.002806562868
0.01599686558
0.002043658157
0.0168556305
0.00117244364
0.01705548774
0.000133482723
0.01642458477
-0.001155725711
0.01474734433
-0.00282226887
0.01178923122
-0.005123723039
0.007459344283
-0.008583956723
0.002444947807
-0.01394664041
-0.000885009462
-0.02017468279
-0.01771287105
-0.002487259219
0.01077482713
-1.206968098e-05
0.008824171971
0.004177195057
0.00570835207
0.008325627127
0.004131403773
0.01211829092
0.003172481092
0.01552426931
0.002485884956
0.01854451821
0.001978435726
0.02118466415
0.001587267667
0.02344126862
0.001259627692
0.02529158627
0.0009562449775
0.02668856794
0.0006466766947
0.02755467858
0.0003063340623
0.02777689039
-8.873366478e-05
0.02719549612
-0.0005743313844
0.02557313784
-0.001199914382
0.02254825692
-0.002098839968
0.01761884381
-0.003654542555
0.01040106581
-0.006728864735
0.002474833468
-0.01224845089
-0.01523803975
0.01077482567
0.01959899542
0.02530734757
0.02943875295
0.03261123483
0.0350971203
0.03707555801
0.03866282796
0.03992245537
0.04087869999
0.041525379
0.04183171365
0.04174297949
0.04116865197
0.03996873493
0.03786989636
0.03421535222
0.02748648914
0.01523803946
)
;

boundaryField
{
    movingWall
    {
        type            calculated;
        value           uniform 0;
    }
    fixedWalls
    {
        type            calculated;
        value           uniform 0;
    }
    frontAndBack
    {
        type            empty;
    }
}


// ************************************************************************* //
