/*--------------------------------*- C++ -*----------------------------------*\
  =========                 |
  \\      /  F ield         | OpenFOAM: The Open Source CFD Toolbox
   \\    /   O peration     | Website:  https://openfoam.org
    \\  /    A nd           | Version:  13
     \\/     M anipulation  |
\*---------------------------------------------------------------------------*/
FoamFile
{
    format      ascii;
    class       surfaceScalarField;
    location    "36";
    object      phi_0;
}
// * * * * * * * * * * * * * * * * * * * * * * * * * * * * * * * * * * * * * //

dimensions      [0 3 -1 0 0 0 0];

internalField   nonuniform List<scalar> 
760
(
4.480890566e-06
-4.481016025e-06
-3.888020815e-05
4.33605327e-05
-0.0001312412762
9.23618047e-05
-0.0002567321815
0.0001254908858
-0.0003994783738
0.0001427475784
-0.0005461393
0.0001466614677
-0.0006848842368
0.0001387467605
-0.0008040310453
0.0001191468544
-0.0008914800038
8.744766946e-05
-0.0009354059771
4.392515334e-05
-0.0009261601023
-9.245903729e-06
-0.0008590244842
-6.71356934e-05
-0.000737008713
-0.0001220144326
-0.0005727391062
-0.000164268052
-0.0003882860327
-0.0001844536086
-0.0002121324754
-0.0001761546938
-7.328107704e-05
-0.0001388510796
6.579202911e-06
-7.985941012e-05
2.246816478e-05
-1.588872923e-05
2.246904322e-05
-4.715729512e-05
4.267698179e-05
-0.0002089386725
0.0002051422788
-0.0004720114332
0.0003554359492
-0.0008038699123
0.0004573499666
-0.001170329317
0.0005092116756
-0.001539949921
0.0005162823526
-0.001883337988
0.0004821346794
-0.002171719163
0.000407526811
-0.002376826913
0.0002925531977
-0.002472927866
0.0001400239355
-0.002440832888
-4.133748637e-05
-0.002273016094
-0.0002349482809
-0.001978607561
-0.0004164219192
-0.001586370491
-0.0005565053649
-0.001143960658
-0.0006268629693
-0.0007119126834
-0.0006082020021
-0.0003520228593
-0.0004987418057
-0.0001115691087
-0.0003203141997
-6.053753246e-06
-0.0001214010753
1.641603853e-05
-0.0001114730211
0.0001541497699
-0.0004041171857
0.0004977858458
-0.0008319512807
0.0007832708683
-0.0013460576
0.000971456615
-0.001899633711
0.001062789751
-0.002449327655
0.001065977069
-0.002953986975
0.000986793159
-0.003373462745
0.0008269996863
-0.003669143501
0.0005882336023
-0.003806831255
0.0002777121025
-0.003761626992
-8.65372859e-05
-0.003523948563
-0.0004726207798
-0.003105374553
-0.0008349929732
-0.002542573186
-0.001119307384
-0.001897248099
-0.001272189027
-0.001249890302
-0.001255559195
-0.0006860045744
-0.001062626679
-0.0002759765257
-0.0007303394517
-5.341418355e-05
-0.0003439613265
-3.699898603e-05
-0.0001726666357
0.0003268170367
-0.0005916288685
0.0009167474023
-0.001175011492
0.001366653084
-0.001855070763
0.001651515378
-0.002573941522
0.001781661971
-0.003280110332
0.001772146744
-0.003925175874
0.001631857589
-0.004462057455
0.001363878644
-0.004845485961
0.0009716646545
-0.005034939784
0.0004671706938
-0.004999591099
-0.0001218806656
-0.004724632701
-0.0007475772526
-0.004218110267
-0.001341515901
-0.003516853708
-0.001820564272
-0.002689235762
-0.002099806951
-0.001831403671
-0.002113392174
-0.001053676315
-0.001840355527
-0.0004566995547
-0.001327314787
-0.0001034314537
-0.0006972311306
-0.0001404306612
-0.0002271595416
0.0005539752751
-0.0007603586047
0.001449941776
-0.001484698412
0.002090991115
-0.00231417054
0.002480986261
-0.003181315382
0.002648806831
-0.004029231812
0.002620062035
-0.004805733982
0.002408359842
-0.005460154491
0.002018301348
-0.005942933531
0.001454449195
-0.006207764606
0.0007320055204
-0.006215941272
-0.0001137006022
-0.005942653209
-0.001020864603
-0.005385259611
-0.001898910692
-0.004572454221
-0.002633369753
-0.003572195011
-0.003100066585
-0.002493562773
-0.00319202705
-0.001476088172
-0.002857832332
-0.0006622157275
-0.0021411887
-0.0001579426337
-0.001201505557
-0.0002983735713
-0.0002731658692
0.0008271405318
-0.0009038320958
0.002080605894
-0.00174946265
0.002936619136
-0.002708534466
0.003440056635
-0.003706207781
0.003646481454
-0.004682802514
0.003596657407
-0.005585328984
0.00331088636
-0.006362362492
0.002795337024
-0.006962008081
0.002054099722
-0.00733248731
0.001102485416
-0.007425274491
-2.091455096e-05
-0.007200822153
-0.001245318172
-0.006638395117
-0.002461338204
-0.005749079942
-0.003522684919
-0.004590965023
-0.004258183376
-0.003280377993
-0.004502617186
-0.001988857321
-0.004149353263
-0.0009141730788
-0.003215876049
-0.0002244786343
-0.001891196531
-0.0005228521887
-0.000308843239
0.001135981782
-0.001015955956
0.00278771663
-0.00195786208
0.003878524138
-0.003021347381
0.004503541576
-0.004126861251
0.004751995263
-0.005214529439
0.004684326736
-0.006233373768
0.004329730688
-0.007134046109
0.003696010369
-0.007864692508
0.002784748929
-0.008369420003
0.001607211977
-0.008589305155
0.0001989678629
-0.008467402079
-0.001367221863
-0.007958381717
-0.002970356193
-0.007045542732
-0.004435522636
-0.005763921264
-0.005539806431
-0.004224793454
-0.006041745887
-0.002627780721
-0.005746362656
-0.001238077444
-0.004605581391
-0.0003124785218
-0.00281679218
-0.0008353312364
-0.0003323198223
0.00146830046
-0.001090742272
0.003546137537
-0.002098171887
0.004885954959
-0.00323373054
0.005639101309
-0.004415801344
0.005934063627
-0.005586751587
0.005855276249
-0.006700356068
0.005443333764
-0.007712475071
0.004708129263
-0.008574655268
0.003646929612
-0.009230091093
0.002262646616
-0.009612113097
0.0005809888818
-0.009646631305
-0.001332702178
-0.00926070073
-0.003356282365
-0.008400660882
-0.005295560892
-0.007062209067
-0.006878259691
-0.005330563545
-0.007773391775
-0.003417081739
-0.007659843323
-0.001658321584
-0.006364342448
-0.0004322937697
-0.004042822575
-0.001267626179
-0.0003423547266
0.001810655243
-0.001123772026
0.00432755426
-0.002160567397
0.00592275045
-0.00332772684
0.00680625923
-0.004543822604
0.007150154477
-0.005755611852
0.00706706375
-0.006924261441
0.006611981787
-0.008014303108
0.00579817192
-0.008985158721
0.004617785379
-0.009784606514
0.003062094429
-0.01034425124
0.001140636841
-0.01057826952
-0.00109868049
-0.01038825529
-0.003546295886
-0.009678706049
-0.006005113054
-0.008389869979
-0.00816709928
-0.006552257427
-0.009611007022
-0.00435563617
-0.009856468839
-0.002193081333
-0.008526899241
-0.0005948064353
-0.00564110298
-0.001862432648
-0.0003394322092
0.002150087624
-0.001114842445
0.005102964343
-0.002141211459
0.006949118292
-0.003291840085
0.007956884976
-0.004487287801
0.008345597422
-0.005680628938
0.008260404599
-0.006842945614
0.007774298654
-0.00795104337
0.006906272831
-0.00897742174
0.005644164584
-0.009881686686
0.003966358045
-0.01060301132
0.001861963259
-0.01105417441
-0.0006475157555
-0.01112075968
-0.003479713937
-0.01066838557
-0.006457492397
-0.00957174004
-0.009263747011
-0.007776129704
-0.01140661869
-0.005399661769
-0.01223294005
-0.002846478043
-0.01108008499
-0.0008108317774
-0.007676748326
-0.002673262691
-0.0003272444016
0.002477332251
-0.001071491102
0.005847209819
-0.002047610006
0.007925234632
-0.003128196694
0.009037470118
-0.004237563085
0.009454961231
-0.00533730352
0.00936014608
-0.006411008065
0.008848003801
-0.007451201558
0.007946468705
-0.008448532235
0.00664149637
-0.009382023487
0.004899848508
-0.01020941237
0.002689350364
-0.01085563506
-1.295885639e-06
-0.01120737389
-0.003127980081
-0.01110456143
-0.006560305149
-0.01035922828
-0.01000907672
-0.008809640591
-0.01295620393
-0.006444190626
-0.01459838753
-0.003596179232
-0.01392809832
-0.001089437092
-0.01018348749
-0.003762701412
-0.0003146215341
0.002791954015
-0.001013156546
0.006545744062
-0.001904354319
0.008816429575
-0.002859654038
0.009992769894
-0.003810043336
0.01040535006
-0.00472921503
0.01027931888
-0.005616453112
0.009735241054
-0.006483067918
0.008813082515
-0.007341738142
0.007500164975
-0.008196839592
0.00575495057
-0.009033764062
0.003526275853
-0.009807062531
0.0007720009463
-0.0104204972
-0.002514547207
-0.0107156547
-0.006265145438
-0.01046214359
-0.01026258749
-0.009390425171
-0.01402792782
-0.007310982223
-0.01667783203
-0.004376870747
-0.01686221324
-0.001433940396
-0.01312641859
-0.005196642101
-0.0003182676538
0.003110221383
-0.0009759263265
0.007203403311
-0.001758109678
0.009598610361
-0.002534376909
0.01076903638
-0.003248832433
0.01111980501
-0.003893963515
0.01092445143
-0.004489362693
0.01033063958
-0.005067826241
0.009391545007
-0.005665943252
0.00809828107
-0.006316051751
0.006405059469
-0.007036971637
0.004247194733
-0.007820994304
0.001556021302
-0.008613259464
-0.001722280669
-0.009285219883
-0.005593181212
-0.009603383915
-0.009944422719
-0.009220488395
-0.014410828
-0.007753042156
-0.01814527849
-0.005064127419
-0.01955112808
-0.001833805234
-0.01635674098
-0.007030443011
-0.0003672268964
0.003477448183
-0.001017874104
0.007854051988
-0.001679829596
0.01026056464
-0.002223763661
0.01131296942
-0.002621000743
0.0115170393
-0.00289477766
0.01119822875
-0.003091778814
0.01052764069
-0.003268710322
0.009568475593
-0.003485677749
0.008315249836
-0.003801414515
0.006720800007
-0.004267374613
0.004713155932
-0.004917751285
0.002206396076
-0.005751216981
-0.0008888131
-0.006699077787
-0.00464532156
-0.007574744722
-0.009068755578
-0.008015407547
-0.01397016278
-0.007478286892
-0.01868239528
-0.005465213894
-0.0215642025
-0.002250467384
-0.01957148856
-0.009280913438
-0.0005096432118
0.00398709152
-0.001222682417
0.008567091485
-0.001757363124
0.01079524489
-0.002002858413
0.01155846574
-0.00198666404
0.01150084175
-0.001781989826
0.01099355261
-0.001471535899
0.01021718698
-0.001137878884
0.009234819762
-0.0008622317118
0.008039602885
-0.0007247344398
0.006583300477
-0.0008035160502
0.004791932467
-0.001170372096
0.002573250076
-0.00187923756
-0.0001799409918
-0.002939205179
-0.003585352276
-0.004257683532
-0.00775027512
-0.005539990364
-0.01268785276
-0.006177036278
-0.0180453508
-0.005315639062
-0.02242560455
-0.002594661375
-0.02229246885
-0.01187557048
-0.0008149406605
0.00480203203
-0.001686244229
0.009438393546
-0.002049975523
0.01115897289
-0.001874741469
0.01138323313
-0.001301249738
0.01092735164
-0.0004798050951
0.01017210688
0.0004620506827
0.009275330115
0.001416097886
0.008280774113
0.002284906086
0.007170798106
0.002974474261
0.005893734691
0.003389192587
0.004377216166
0.003429840132
0.002532607547
0.002996407682
0.0002534965501
0.002002959258
-0.00259190698
0.0004223951066
-0.00616971553
-0.001599378295
-0.01066607901
-0.003528833908
-0.01611589037
-0.00427061199
-0.02168381907
-0.002692560471
-0.02387053146
-0.01456813137
-0.001350393364
0.006152425003
-0.002423649107
0.0105116486
-0.002394303115
0.01112962194
-0.00150873755
0.01049766668
-0.0001224839328
0.009541099962
0.001513677207
0.008535946118
0.003230738171
0.007558267787
0.004905354956
0.006606157822
0.006436214082
0.005639941217
0.00772795325
0.004601995942
0.008680180058
0.003424990308
0.009180228373
0.002032561719
0.009098637001
0.0003350876574
0.008291526065
-0.001784789691
0.006619671115
-0.00449785773
0.004034154651
-0.008080569827
0.000831257853
-0.01291300158
-0.001892206593
-0.01896035843
-0.002258847265
-0.02350388579
-0.01682697901
-0.002135539063
0.008287963192
-0.002923455024
0.0112995675
-0.001691179806
0.00989734272
0.0005274345159
0.008279048454
0.003104544101
0.006963988864
0.005749932386
0.005890559037
0.00831074664
0.004997456863
0.01069045805
0.004226452748
0.01281473174
0.003515672147
0.01461022421
0.002806502812
0.01599112848
0.002044088336
0.01685043085
0.001173265304
0.01705098821
0.00013452494
0.01642085319
-0.001154648297
0.01474434981
-0.002821347333
0.01178686287
-0.005123081154
0.007457524305
-0.008583656621
0.002443703544
-0.01394653969
-0.0008855824344
-0.02017460284
-0.01771256331
-0.002487057791
0.01077501972
-1.190054577e-05
0.008824413063
0.004177081613
0.005708361849
0.00832496313
0.004131163695
0.01211688791
0.003172062037
0.01552205418
0.002485393114
0.0185415339
0.001977978945
0.02118106047
0.001586929563
0.02343726897
0.001259466406
0.02528748637
0.0009562852163
0.02668468599
0.0006468890792
0.02755127785
0.0003066747457
0.02777411226
-8.831477994e-05
0.02719339729
-0.0005739332916
0.02557164864
-0.001199603422
0.02254726625
-0.002098696307
0.01761818032
-0.003654569417
0.01040059859
-0.006728960813
0.002474548241
-0.01224855306
-0.01523801746
0.01077501805
0.01959942856
0.02530779047
0.02943895603
0.03261101899
0.03509641272
0.03707439396
0.03866132615
0.0399207922
0.04087707694
0.04152396865
0.04183064413
0.04174232875
0.04116840004
0.0399687936
0.03787009895
0.03421552761
0.02748656879
0.01523801713
)
;

boundaryField
{
    movingWall
    {
        type            calculated;
        value           uniform 0;
    }
    fixedWalls
    {
        type            calculated;
        value           uniform 0;
    }
    frontAndBack
    {
        type            empty;
    }
}


// ************************************************************************* //
