/*--------------------------------*- C++ -*----------------------------------*\
  =========                 |
  \\      /  F ield         | OpenFOAM: The Open Source CFD Toolbox
   \\    /   O peration     | Website:  https://openfoam.org
    \\  /    A nd           | Version:  13
     \\/     M anipulation  |
\*---------------------------------------------------------------------------*/
FoamFile
{
    format      ascii;
    class       volVectorField;
    location    "36";
    object      U;
}
// * * * * * * * * * * * * * * * * * * * * * * * * * * * * * * * * * * * * * //

dimensions      [0 1 -1 0 0 0 0];

internalField   nonuniform List<vector> 
400
(
(0.0001810101413 -0.0001848549332 0)
(-0.0001400756378 3.141669119e-05 0)
(-0.001531626145 0.0002687494956 0)
(-0.003775562769 0.0004193602646 0)
(-0.006525434893 0.0004988938615 0)
(-0.009480904237 0.0005290240845 0)
(-0.01239284476 0.0005195378308 0)
(-0.01502867197 0.0004694231775 0)
(-0.0171490721 0.0003720083354 0)
(-0.01850859375 0.0002219879595 0)
(-0.01888276015 2.261275959e-05 0)
(-0.0181171655 -0.0002087926429 0)
(-0.01618651209 -0.0004384317441 0)
(-0.01324526397 -0.0006199745841 0)
(-0.009647908982 -0.0007050068634 0)
(-0.005918512505 -0.0006586529094 0)
(-0.002660957675 -0.0004746063173 0)
(-0.0004154054985 -0.000183168703 0)
(0.0005334655592 0.0001349807728 0)
(0.0003076278624 0.0003006929993 0)
(-4.830611579e-05 0.0001389496016 0)
(-0.002071039671 0.001926238191 0)
(-0.006405945612 0.003745296949 0)
(-0.01252797321 0.005002858471 0)
(-0.01968269034 0.005664491591 0)
(-0.02720172034 0.005806329129 0)
(-0.03448255977 0.005479052741 0)
(-0.04094584992 0.004689306931 0)
(-0.04601470156 0.003427566855 0)
(-0.04913357503 0.001713186283 0)
(-0.04983165135 -0.0003617760726 0)
(-0.04781969615 -0.002604181243 0)
(-0.04309785923 -0.004718678846 0)
(-0.03604220323 -0.006344056366 0)
(-0.02743311027 -0.007128952895 0)
(-0.01839162134 -0.006836496201 0)
(-0.01020248439 -0.005450481505 0)
(-0.004032128154 -0.003250551953 0)
(-0.0005818432903 -0.0008650985765 0)
(0.0002192107308 0.0005825491489 0)
(-0.0003526956362 0.001712170823 0)
(-0.004463786577 0.006438200175 0)
(-0.01181142144 0.01062602453 0)
(-0.02149320719 0.01345767368 0)
(-0.03241822456 0.0148844363 0)
(-0.04367816128 0.01503339948 0)
(-0.05443821708 0.01399401466 0)
(-0.06388590988 0.01178903281 0)
(-0.07122286141 0.008431956624 0)
(-0.07570049322 0.004016864215 0)
(-0.07670158154 -0.001197595216 0)
(-0.0738551379 -0.00673809637 0)
(-0.06716146985 -0.01192238927 0)
(-0.05709683937 -0.01593745805 0)
(-0.04465986375 -0.01799666945 0)
(-0.03131608712 -0.01756051233 0)
(-0.01880031488 -0.01457141964 0)
(-0.00877440032 -0.009627125571 0)
(-0.002418258733 -0.004054640913 0)
(3.315976006e-05 1.510343306e-05 0)
(-0.0006284799043 0.004574256489 0)
(-0.006773586995 0.01360940311 0)
(-0.01701125623 0.02082225256 0)
(-0.02999366838 0.02550853821 0)
(-0.04429121645 0.02773263187 0)
(-0.05881557162 0.02771260971 0)
(-0.07258651005 0.02558788503 0)
(-0.08465093026 0.0214051739 0)
(-0.09407375625 0.01521624873 0)
(-0.09997607518 0.007215500467 0)
(-0.1016176862 -0.002135902562 0)
(-0.09851397875 -0.01203688819 0)
(-0.09057178236 -0.02135221153 0)
(-0.07822296381 -0.02872363487 0)
(-0.06252115754 -0.03280353379 0)
(-0.04514582816 -0.03260567074 0)
(-0.02824011593 -0.02791062455 0)
(-0.01404579154 -0.01959299196 0)
(-0.004423705103 -0.009733247007 0)
(-0.0001269054376 -0.001524763626 0)
(-0.0008660752834 0.008609625654 0)
(-0.008840687887 0.02321430248 0)
(-0.02170361996 0.03400682889 0)
(-0.03766938418 0.04072074571 0)
(-0.05499073716 0.04370592662 0)
(-0.0724441424 0.04334699831 0)
(-0.0889699596 0.03986011883 0)
(-0.1035467482 0.03332182177 0)
(-0.1151641718 0.02381847807 0)
(-0.1228459157 0.01163367977 0)
(-0.1257170706 -0.002586031009 0)
(-0.1231118892 -0.01772609137 0)
(-0.1147205318 -0.03218918954 0)
(-0.1007677076 -0.04400940773 0)
(-0.08219552018 -0.05113614561 0)
(-0.06078405751 -0.05191572344 0)
(-0.03909141346 -0.04571998565 0)
(-0.02010778158 -0.0335302119 0)
(-0.00666514834 -0.01818061798 0)
(-0.0002730165605 -0.004094244387 0)
(-0.001062037018 0.0136594406 0)
(-0.01058600351 0.03495464781 0)
(-0.02570077275 0.04983185854 0)
(-0.04424253271 0.05873386722 0)
(-0.06419806179 0.06246868616 0)
(-0.08425628773 0.0616786604 0)
(-0.1033358118 0.056693658 0)
(-0.1204084321 0.04762233799 0)
(-0.1344402493 0.03456177735 0)
(-0.1443836156 0.01783694127 0)
(-0.1492144975 -0.001786875452 0)
(-0.148019838 -0.02295017736 0)
(-0.1401501128 -0.04363440294 0)
(-0.1254485523 -0.06122896839 0)
(-0.1045448941 -0.07281721994 0)
(-0.07914831191 -0.07576730465 0)
(-0.05218073662 -0.06863732093 0)
(-0.02754486708 -0.05217819703 0)
(-0.009424103172 -0.02992302256 0)
(-0.0004479396588 -0.007843200764 0)
(-0.001209031185 0.0195341126 0)
(-0.01193674586 0.04845231657 0)
(-0.02882836915 0.0678556578 0)
(-0.04942695882 0.07911173177 0)
(-0.07152270577 0.08364011077 0)
(-0.09376743573 0.08243346512 0)
(-0.1151120222 0.07597715639 0)
(-0.1345801446 0.06441180663 0)
(-0.1511692934 0.04780648516 0)
(-0.1638000839 0.02645126248 0)
(-0.1713102453 0.001121860451 0)
(-0.1725096136 -0.02670051684 0)
(-0.1663198741 -0.05467471981 0)
(-0.1520373091 -0.07956341256 0)
(-0.1297386513 -0.09744243379 0)
(-0.10078396 -0.1043328665 0)
(-0.06825456334 -0.09739597113 0)
(-0.03702020955 -0.07655375871 0)
(-0.01306192441 -0.0458109714 0)
(-0.000703006795 -0.01310063185 0)
(-0.001298536347 0.02600620664 0)
(-0.01282225634 0.06324290096 0)
(-0.03091602842 0.08752070104 0)
(-0.05292193215 0.1012855119 0)
(-0.07650654824 0.1066950186 0)
(-0.1003323483 0.1051806711 0)
(-0.1234328137 0.09742948581 0)
(-0.1449427996 0.08361696007 0)
(-0.1639573338 0.06374185064 0)
(-0.1794331661 0.03796965246 0)
(-0.190130943 0.00695109195 0)
(-0.1946179631 -0.02788062882 0)
(-0.19136804 -0.0640332247 0)
(-0.1790173055 -0.09775854092 0)
(-0.1568386113 -0.1240796454 0)
(-0.125451737 -0.1373269854 0)
(-0.08766424634 -0.1325309463 0)
(-0.04911213097 -0.1078117461 0)
(-0.01797418541 -0.06701651607 0)
(-0.001101295499 -0.02039978222 0)
(-0.001325859699 0.03281404656 0)
(-0.01319597044 0.07878392023 0)
(-0.03183344576 0.1081525931 0)
(-0.0544630108 0.1245276846 0)
(-0.07869275644 0.1309031516 0)
(-0.103236318 0.1292336261 0)
(-0.127255124 0.1204617194 0)
(-0.1500552334 0.1048127264 0)
(-0.1709082539 0.08218471452 0)
(-0.1889073514 0.0525365826 0)
(-0.2028545285 0.01625468126 0)
(-0.2111956839 -0.02547385586 0)
(-0.2120447908 -0.0702529527 0)
(-0.2033681996 -0.1140748198 0)
(-0.1834424964 -0.1510489819 0)
(-0.1517000959 -0.1736342982 0)
(-0.1099982169 -0.1739670504 0)
(-0.06412457477 -0.1469656302 0)
(-0.02456125482 -0.09495521088 0)
(-0.001725792367 -0.0304915988 0)
(-0.001297503735 0.03968385253 0)
(-0.01307382292 0.09448705684 0)
(-0.03155780758 0.1289798067 0)
(-0.0539172989 0.1479464466 0)
(-0.07775221589 0.1552931249 0)
(-0.101861611 0.1535816592 0)
(-0.1255764653 0.1440758958 0)
(-0.148432995 0.1270862448 0)
(-0.1699653259 0.1024071833 0)
(-0.1895264212 0.06974020935 0)
(-0.2061264499 0.02909328912 0)
(-0.21829287 -0.01879141963 0)
(-0.2239914771 -0.07191303562 0)
(-0.2206652038 -0.1263996195 0)
(-0.2055547866 -0.1758412435 0)
(-0.1765289242 -0.2109742492 0)
(-0.1336699905 -0.2204930714 0)
(-0.08180999332 -0.1944145082 0)
(-0.03317305059 -0.1310969501 0)
(-0.002690253365 -0.04435265269 0)
(-0.001241056255 0.04637769439 0)
(-0.01258584307 0.1097866658 0)
(-0.0302628032 0.149186375 0)
(-0.05140704178 0.1705125706 0)
(-0.07364602467 0.1786561583 0)
(-0.09590322775 0.1768754793 0)
(-0.1177251219 0.1668330399 0)
(-0.1389354499 0.1489820037 0)
(-0.1594122525 0.123046239 0)
(-0.178891568 0.08846802819 0)
(-0.1967751763 0.0448188013 0)
(-0.2119220602 -0.007757675123 0)
(-0.2224664086 -0.06797712462 0)
(-0.2256511555 -0.1325790351 0)
(-0.2178849066 -0.1952998939 0)
(-0.1953409999 -0.2457733076 0)
(-0.1555781668 -0.2692555782 0)
(-0.1009922523 -0.2492797704 0)
(-0.04398171616 -0.176601992 0)
(-0.004149251575 -0.0631747459 0)
(-0.001218691602 0.05277527954 0)
(-0.01204073655 0.1242523074 0)
(-0.02841874486 0.1680014915 0)
(-0.0474363739 0.191121548 0)
(-0.06678232677 0.1995957265 0)
(-0.08557369654 0.1974792469 0)
(-0.1036405312 0.1869135749 0)
(-0.1211536735 0.1685636338 0)
(-0.1383994125 0.142144934 0)
(-0.1555884093 0.1068896984 0)
(-0.1726617808 0.06194586859 0)
(-0.1890663551 0.006788429218 0)
(-0.2034413042 -0.05822941459 0)
(-0.2132834331 -0.1309688432 0)
(-0.2146801391 -0.2061560456 0)
(-0.2023822863 -0.2734426178 0)
(-0.171056853 -0.3155190843 0)
(-0.1191797095 -0.3086689783 0)
(-0.05673467411 -0.2317088188 0)
(-0.00630070055 -0.08830512916 0)
(-0.001348797395 0.05900251939 0)
(-0.01200996343 0.1377467947 0)
(-0.02689362179 0.1848136594 0)
(-0.04298604244 0.2086728749 0)
(-0.0581045896 0.2166052846 0)
(-0.07170294183 0.2135743214 0)
(-0.08401170754 0.2022600209 0)
(-0.09561924538 0.1835917644 0)
(-0.1072602978 0.1573432444 0)
(-0.1196579672 0.1226193129 0)
(-0.1333626873 0.07822872774 0)
(-0.1485404933 0.02302550249 0)
(-0.1646455058 -0.04362814556 0)
(-0.179950921 -0.1210792915 0)
(-0.1909320648 -0.2058743354 0)
(-0.191688975 -0.2891674464 0)
(-0.1743028666 -0.3529697901 0)
(-0.1323692763 -0.3671452092 0)
(-0.07036850732 -0.2948410437 0)
(-0.00936680949 -0.1210640691 0)
(-0.001846620852 0.06562984476 0)
(-0.01344658529 0.1506218515 0)
(-0.02703786489 0.1992712983 0)
(-0.03951572764 0.2221178454 0)
(-0.04901028934 0.2281237597 0)
(-0.05559269539 0.2232612285 0)
(-0.06008727892 0.210742443 0)
(-0.06358781816 0.1917541108 0)
(-0.06729097793 0.1661596169 0)
(-0.07240456392 0.1330172104 0)
(-0.08005390472 0.09092617814 0)
(-0.09113700943 0.03828133406 0)
(-0.1060615788 -0.02643132217 0)
(-0.1242742432 -0.1040766179 0)
(-0.1434403567 -0.1935755423 0)
(-0.1581999754 -0.2890953529 0)
(-0.159193014 -0.3746998062 0)
(-0.1351973081 -0.4167812397 0)
(-0.08252751702 -0.3615638396 0)
(-0.0135026027 -0.1622804228 0)
(-0.003084236283 0.07396500428 0)
(-0.01783302936 0.1639182814 0)
(-0.03066675978 0.2112848372 0)
(-0.03869560662 0.2303818458 0)
(-0.04085032045 0.2324786255 0)
(-0.03832689032 0.2245660204 0)
(-0.03282445849 0.2102401016 0)
(-0.02604035694 0.1908257134 0)
(-0.0196191206 0.1662324685 0)
(-0.01517181365 0.135511295 0)
(-0.01428084617 0.09717918688 0)
(-0.01845779165 0.04939593429 0)
(-0.02900701723 -0.009909999144 0)
(-0.04669374562 -0.0828070712 0)
(-0.07097814478 -0.1705963563 0)
(-0.09837580607 -0.2714989832 0)
(-0.1200139415 -0.3746638515 0)
(-0.1212803576 -0.4480613168 0)
(-0.08905730758 -0.4239210869 0)
(-0.01848671431 -0.2114863012 0)
(-0.005578466181 0.08654931942 0)
(-0.02716810817 0.1794584783 0)
(-0.03950446422 0.2206654874 0)
(-0.04117787492 0.2319031164 0)
(-0.03316411537 0.2275048624 0)
(-0.01863560923 0.2151751994 0)
(-0.0004946193581 0.1984854483 0)
(0.0188991107 0.1786178151 0)
(0.03751887131 0.1553866464 0)
(0.0534815338 0.1278146404 0)
(0.06491853476 0.09442967245 0)
(0.06990385264 0.05338162113 0)
(0.06644800937 0.002443309692 0)
(0.05262398203 -0.06105798537 0)
(0.02703327501 -0.1401649871 0)
(-0.009701540021 -0.2372236705 0)
(-0.05151317989 -0.3489214126 0)
(-0.08331758305 -0.4513378957 0)
(-0.08351516193 -0.4708931097 0)
(-0.02311662867 -0.2665530409 0)
(-0.009893649013 0.1087274919 0)
(-0.04300479874 0.1995524342 0)
(-0.05227271451 0.2256629415 0)
(-0.04186933694 0.2231627529 0)
(-0.01798146761 0.20942723 0)
(0.01313078408 0.1916758099 0)
(0.04729727093 0.1725972012 0)
(0.08168955059 0.152749368 0)
(0.1141437152 0.1316155696 0)
(0.1427557578 0.1081236019 0)
(0.1656191949 0.08087435456 0)
(0.180652514 0.04819514563 0)
(0.1854795321 0.008071164432 0)
(0.1773901686 -0.04210481765 0)
(0.1534327229 -0.1060157501 0)
(0.111231856 -0.1889510884 0)
(0.05210103665 -0.2958719914 0)
(-0.01267399594 -0.4176317294 0)
(-0.05683490423 -0.4888329332 0)
(-0.02466484271 -0.3239304811 0)
(-0.01780291508 0.1517043058 0)
(-0.06129974451 0.2236457253 0)
(-0.05229109062 0.2176455316 0)
(-0.01441358575 0.1948947725 0)
(0.03532475779 0.1709996845 0)
(0.08848401434 0.1490116908 0)
(0.1410857539 0.129325483 0)
(0.1908483377 0.1113451958 0)
(0.2361782351 0.09402712297 0)
(0.2756745195 0.07618508905 0)
(0.3078038617 0.05657855149 0)
(0.3306945351 0.03387637783 0)
(0.3419641001 0.006555576771 0)
(0.3386111188 -0.02737119286 0)
(0.3168222157 -0.07106361984 0)
(0.2720055055 -0.1304541418 0)
(0.1999607198 -0.2164417011 0)
(0.1028675609 -0.3383226211 0)
(0.004286638599 -0.456753091 0)
(-0.01597739317 -0.3692758069 0)
(-0.02421005853 0.2082958819 0)
(-0.03789316955 0.2303877708 0)
(0.03729048105 0.1765426196 0)
(0.1250544096 0.1368409883 0)
(0.2057942634 0.1090303032 0)
(0.2779338321 0.08817836127 0)
(0.3421454961 0.07208484123 0)
(0.3987230297 0.05915881966 0)
(0.4477198574 0.04801608094 0)
(0.4889051187 0.0375233211 0)
(0.5216132324 0.02673255618 0)
(0.5446058874 0.01479215101 0)
(0.5559945663 0.000825776499 0)
(0.5531200726 -0.01624012435 0)
(0.5321606887 -0.03824335829 0)
(0.4876431649 -0.06912119911 0)
(0.4110779596 -0.1190897304 0)
(0.290840314 -0.2093529567 0)
(0.1331034416 -0.3382906189 0)
(0.03875638153 -0.3403552927 0)
(0.2418935239 0.1091417563 0)
(0.3134817693 0.09712989858 0)
(0.4443586058 0.05697289423 0)
(0.549663437 0.03510525586 0)
(0.6240752711 0.0237298601 0)
(0.6795899416 0.01669791682 0)
(0.7234363346 0.01196970835 0)
(0.7587183001 0.008688008652 0)
(0.7869905543 0.006254904393 0)
(0.8090533408 0.004237074955 0)
(0.8250850696 0.002338620012 0)
(0.8347127391 0.000352007607 0)
(0.8370701406 -0.001899551412 0)
(0.830732855 -0.004583115451 0)
(0.8133927909 -0.008024496186 0)
(0.7811515714 -0.0128873303 0)
(0.725712302 -0.02123796575 0)
(0.629876257 -0.03810128602 0)
(0.4592703534 -0.08555838423 0)
(0.3048920974 -0.1256988797 0)
)
;

boundaryField
{
    movingWall
    {
        type            fixedValue;
        value           uniform (1 0 0);
    }
    fixedWalls
    {
        type            fixedValue;
        value           uniform (0 0 0);
    }
    frontAndBack
    {
        type            empty;
    }
}


// ************************************************************************* //
