/*--------------------------------*- C++ -*----------------------------------*\
  =========                 |
  \\      /  F ield         | OpenFOAM: The Open Source CFD Toolbox
   \\    /   O peration     | Website:  https://openfoam.org
    \\  /    A nd           | Version:  13
     \\/     M anipulation  |
\*---------------------------------------------------------------------------*/
FoamFile
{
    format      ascii;
    class       vectorField;
    location    "36";
    object      U_all;
}
// * * * * * * * * * * * * * * * * * * * * * * * * * * * * * * * * * * * * * //


400
(
(1.099446934e-05 -3.78397519e-05 0)
(-0.0006661074221 0.0004130411612 -1.550541637e-23)
(-0.00218537775 0.0009203934508 0)
(-0.004047833502 0.00131278091 0)
(-0.005971866856 0.00153506548 6.844525435e-25)
(-0.007762780277 0.001569846619 4.151264396e-24)
(-0.009284541763 0.001423561708 -7.370481479e-24)
(-0.01043593838 0.001119721903 7.533750611e-24)
(-0.01113681194 0.0006960827977 -2.095636272e-25)
(-0.01132710909 0.0002030794262 -3.99502369e-24)
(-0.01097176975 -0.0003002312271 5.804042171e-24)
(-0.01007232464 -0.0007475147942 -5.929935515e-23)
(-0.008679877127 -0.00107556246 -6.553058992e-23)
(-0.006902851156 -0.001233045172 -7.784655293e-23)
(-0.004910737471 -0.001192639632 4.573793762e-24)
(-0.002927231722 -0.0009619214219 -4.138139108e-24)
(-0.001205298344 -0.0005912125453 -1.998888061e-22)
(-1.906671644e-05 -0.0001698838206 0)
(0.0005181559461 0.0001720846498 1.50999858e-25)
(0.0002227524147 0.0003059780011 -2.557747962e-24)
(-0.0002633683634 0.0008289585086 1.383584871e-25)
(-0.002703310261 0.003383835552 1.560325367e-23)
(-0.006907277745 0.005604495921 1.554175333e-25)
(-0.01195231807 0.007008203553 -8.493366514e-25)
(-0.01713504009 0.007553773132 1.161830846e-24)
(-0.02197534688 0.007294196937 1.306547413e-23)
(-0.02611075004 0.006321891037 1.391826122e-24)
(-0.02926563442 0.004754190153 -7.285384825e-24)
(-0.03122671715 0.002737150383 1.015426163e-23)
(-0.03184199841 0.0004524068838 4.510426327e-24)
(-0.03102760499 -0.00188414141 -6.319349709e-24)
(-0.02879315856 -0.004023025291 2.961823498e-24)
(-0.02527137733 -0.005708350861 3.895735068e-23)
(-0.02073194405 -0.006707407403 -1.954886114e-24)
(-0.01558962328 -0.00685413979 3.754714169e-24)
(-0.01038513222 -0.00609746558 -9.741782885e-23)
(-0.00573027075 -0.004546189127 9.638372533e-23)
(-0.002233365215 -0.0025074224 -3.962156209e-25)
(-0.0001817733438 -0.0005023757115 4.062082511e-25)
(8.34368691e-05 0.0006099227632 0)
(-0.0004188247799 0.002935074967 -2.911017713e-25)
(-0.004647876528 0.008804007664 1.702859641e-23)
(-0.01137195822 0.01324041425 -8.275963513e-24)
(-0.01932728475 0.01579203126 -2.074348628e-25)
(-0.02747410708 0.01652999222 2.03783095e-25)
(-0.03511777488 0.01564441076 6.924898809e-27)
(-0.04171343136 0.01335997155 -1.224197852e-24)
(-0.04683569731 0.009919767451 -4.55367305e-25)
(-0.05014986756 0.005602430741 -1.063253697e-23)
(-0.05141229735 0.0007444201313 0)
(-0.0504779128 -0.004241777981 0)
(-0.04733704646 -0.00888718162 2.67118604e-23)
(-0.04215926679 -0.01268176225 2.813196026e-23)
(-0.03531436572 -0.01513604471 -1.646285211e-24)
(-0.02738995703 -0.0158618904 4.846284858e-23)
(-0.01917005512 -0.0146733392 9.42006318e-23)
(-0.01156090419 -0.01169360396 3.976548786e-23)
(-0.005465408743 -0.007450745235 4.144276341e-25)
(-0.001451096784 -0.002936046856 1.072599783e-25)
(-9.072540177e-05 0.0002258731826 0)
(-0.0005024639497 0.006045345555 -4.249631728e-23)
(-0.006402739665 0.01637074585 -1.69308215e-23)
(-0.01553501986 0.02355932187 8.202813861e-24)
(-0.02627911013 0.02744161013 0)
(-0.03728745148 0.02832100612 0)
(-0.04769035416 0.02658771235 0)
(-0.05679660624 0.02263119425 -4.477804666e-26)
(-0.06405381364 0.01683608778 -2.134879897e-24)
(-0.06901078645 0.009622182225 0)
(-0.07130824953 0.001491051861 1.635874031e-24)
(-0.07070850709 -0.006936498861 2.803028985e-25)
(-0.06713036925 -0.01493018038 -2.8108774e-25)
(-0.06069903616 -0.0216672711 0)
(-0.051807491 -0.02631604597 4.133630857e-23)
(-0.04114990717 -0.02816069782 -4.681985463e-23)
(-0.02971969573 -0.02677371371 -2.762390388e-23)
(-0.01873716175 -0.02221529986 -3.961706359e-23)
(-0.009488024172 -0.01521922017 7.796013792e-25)
(-0.002976877032 -0.007298196171 9.789523689e-23)
(-0.0002318781077 -0.0008661711453 0)
(-0.0005316131934 0.01009500951 4.270297329e-23)
(-0.007983590375 0.0259521812 4.784121441e-25)
(-0.01939686796 0.03642880936 -4.674853671e-25)
(-0.03282381135 0.04185518586 0)
(-0.04664686999 0.04289483091 7.781681132e-25)
(-0.05985227059 0.04020072116 -7.673785293e-25)
(-0.0716328832 0.03434740184 3.671914529e-23)
(-0.08132747889 0.02585663173 1.847830791e-23)
(-0.08836597524 0.01527298052 6.237862222e-24)
(-0.09225465901 0.003246150049 -1.637779846e-24)
(-0.09260376206 -0.009407824102 0)
(-0.08917552189 -0.02167476748 4.371143954e-25)
(-0.08195976411 -0.03236743453 1.009181655e-23)
(-0.07126883232 -0.04021248349 -4.349685395e-23)
(-0.05782017246 -0.04402044548 1.933142997e-24)
(-0.042785819 -0.04294827784 4.218122243e-23)
(-0.02775449601 -0.03683345753 -3.843159771e-25)
(-0.01455061819 -0.02652720319 0)
(-0.004859459639 -0.01408454347 5.436516874e-23)
(-0.0003641472373 -0.00284695499 -2.564990667e-22)
(-0.0005272205903 0.01499926843 9.840682964e-23)
(-0.00937792117 0.03739020221 -4.907131409e-25)
(-0.0228818185 0.05170220345 0)
(-0.03883041969 0.05894180276 0)
(-0.0553865453 0.06025571858 -8.731727169e-23)
(-0.07142873768 0.05661898591 -8.498704086e-23)
(-0.08606650698 0.04880166793 -4.067132878e-23)
(-0.09855082155 0.03743979202 -1.504185301e-23)
(-0.1081944903 0.02315983431 -5.368018289e-24)
(-0.114344431 0.006709682082 -8.174507723e-24)
(-0.1164045793 -0.01093291102 6.600626612e-24)
(-0.1138937006 -0.02848943339 8.825834e-24)
(-0.1065486628 -0.04437044062 -1.892321973e-23)
(-0.09446801137 -0.05675331279 4.60418094e-24)
(-0.07826854685 -0.06378296117 0)
(-0.05922893874 -0.06393493073 -1.573309144e-23)
(-0.0393398088 -0.05653814397 -2.415763496e-26)
(-0.02114188218 -0.042358079 0)
(-0.007318700253 -0.02398228899 -1.520559335e-22)
(-0.0005216159641 -0.005925544754 6.056094755e-22)
(-0.0004990818394 0.02064573509 -9.77364281e-23)
(-0.01052950544 0.05045435538 2.831899128e-22)
(-0.0258295641 0.06912508236 1.526820336e-22)
(-0.0440213662 0.07849254202 3.619161233e-24)
(-0.06310736827 0.08029472885 -7.319349674e-23)
(-0.08190402097 0.07588039842 9.043135003e-23)
(-0.09947760119 0.06621688264 -3.590094031e-24)
(-0.1150226975 0.05201693419 -1.729108392e-24)
(-0.1277518745 0.0339235774 2.524068768e-24)
(-0.1368472148 0.01270233394 7.382172684e-24)
(-0.1414710067 -0.01058781184 -6.500401702e-24)
(-0.1408247743 -0.03446022392 -9.787172912e-24)
(-0.1342745568 -0.05692769069 -3.26174469e-23)
(-0.1215449896 -0.07553313143 -3.660949281e-23)
(-0.1029672383 -0.08754257323 5.644858445e-25)
(-0.07976367887 -0.09039206575 0)
(-0.05426681153 -0.08244511139 0)
(-0.02987160211 -0.06397735026 -2.905932234e-24)
(-0.01066284884 -0.03798793783 2.970378527e-24)
(-0.0007350935027 -0.01050089283 1.027874158e-22)
(-0.0004479166271 0.02687249884 0)
(-0.01134922871 0.06480754468 2.001981895e-22)
(-0.0280159872 0.08829613115 8.962060868e-23)
(-0.04799855726 0.1001234496 0)
(-0.06920599749 0.1027076122 1.56984666e-22)
(-0.09044370392 0.09781574893 0)
(-0.1107831353 0.08661100141 -1.42836928e-22)
(-0.1294093397 0.06983948438 6.51544394e-24)
(-0.1454771237 0.04808231316 0)
(-0.1580351392 0.0220175575 0)
(-0.1660133025 -0.007334427674 -1.374381985e-24)
(-0.1682671134 -0.03838837574 -9.316515933e-25)
(-0.16370643 -0.06883972896 1.491944648e-22)
(-0.1515208409 -0.09558272205 -4.704632063e-23)
(-0.131513426 -0.1148298273 -2.560864987e-24)
(-0.1045595848 -0.1225703032 1.534614246e-24)
(-0.07309348324 -0.1155517634 -1.558821684e-24)
(-0.04135020609 -0.092831131 0)
(-0.0152522996 -0.05740766241 3.203747447e-24)
(-0.001044308987 -0.01714714088 -1.012897453e-21)
(-0.0003744667222 0.03346303014 0)
(-0.01175005799 0.07998915246 -1.128250023e-22)
(-0.02920707197 0.1086390478 -6.191072277e-22)
(-0.05031743728 0.1232233481 -3.755268846e-22)
(-0.07296315599 0.126909654 0)
(-0.09598957885 0.1219255208 4.119419537e-22)
(-0.1185273217 0.1096348307 1.260908174e-22)
(-0.1398146126 0.09078243636 -5.581775603e-24)
(-0.1590221235 0.06581392126 5.554148813e-24)
(-0.175146067 0.03520881251 0)
(-0.1869559638 -0.0001967343166 2.912104946e-23)
(-0.19301723 -0.03889752022 4.695779885e-24)
(-0.1917809577 -0.07843885324 -1.076790409e-22)
(-0.1817874125 -0.1151864988 8.004037686e-23)
(-0.1620570162 -0.1442599032 -2.419709412e-22)
(-0.1327061776 -0.159854819 0)
(-0.09577886512 -0.1563112486 0)
(-0.05601632067 -0.1302980769 0)
(-0.02147858745 -0.08381133191 0)
(-0.001500384389 -0.02665515708 5.572034682e-22)
(-0.0002873900579 0.04016076087 0)
(-0.01169359469 0.09543607679 -3.492979124e-22)
(-0.02924437871 0.129407312 8.932723487e-22)
(-0.05060946486 0.1469298614 3.617142345e-22)
(-0.07370081446 0.1519748136 0)
(-0.09745149588 0.1472757491 -3.862519601e-22)
(-0.1211069659 0.1344191581 -3.174407424e-23)
(-0.1440324594 0.1141393073 3.333085938e-22)
(-0.1655143035 0.08670005479 1.769464801e-22)
(-0.1846248312 0.05229123655 -4.060129834e-23)
(-0.2001325592 0.01141717556 1.656821247e-23)
(-0.2104622217 -0.03471421712 -8.265185093e-24)
(-0.21372083 -0.08376560258 3.371837533e-22)
(-0.2078215275 -0.1318755939 0)
(-0.1908238324 -0.1732755676 2.420878421e-22)
(-0.1616335549 -0.2002592913 5.774658805e-24)
(-0.1211662538 -0.204012125 -5.860776049e-24)
(-0.0738498879 -0.1772119576 1.548407569e-22)
(-0.0297178638 -0.118864208 -5.435335836e-24)
(-0.002179544751 -0.04005397928 0)
(-0.0002117200894 0.04671638356 0)
(-0.011250011 0.1105497728 0)
(-0.02815624417 0.1497354474 -5.02272027e-22)
(-0.04874479123 0.1701517027 -1.880986116e-23)
(-0.07100086274 0.176625659 2.038366871e-23)
(-0.09399450981 0.1724526026 -2.014299508e-23)
(-0.1171434241 0.1594870609 -2.316871994e-23)
(-0.1400179445 0.1384804833 -3.029806152e-22)
(-0.1621328835 0.1095160602 6.698615615e-23)
(-0.1827958983 0.07245187171 4.51315253e-23)
(-0.2009835501 0.02734930271 -4.577694658e-23)
(-0.2152270202 -0.02508695275 0)
(-0.2235562141 -0.08298348 -7.839582404e-23)
(-0.2234632113 -0.1427256925 0)
(-0.2120679335 -0.1981820421 -3.73954148e-22)
(-0.1867434442 -0.2400773205 5.244914072e-22)
(-0.14644382 -0.2560772927 0)
(-0.09394566907 -0.2331209081 -1.493954912e-22)
(-0.04022000558 -0.1639613366 1.93751006e-22)
(-0.003201099764 -0.05861062098 -3.411489732e-22)
(-0.0002015414229 0.05297583561 0)
(-0.01067262114 0.1248172004 9.182829911e-22)
(-0.0262844709 0.168742406 -2.440673467e-23)
(-0.04501108335 0.1916454569 9.193299245e-22)
(-0.0649459809 0.1992920502 -2.512074653e-23)
(-0.08536629206 0.1956103839 2.838832911e-23)
(-0.1059305729 0.1827886475 -2.812919074e-23)
(-0.1264924284 0.1616583271 -1.660912305e-23)
(-0.146899696 0.1321762199 -5.260211621e-22)
(-0.1668458283 0.09389646921 -8.906599291e-24)
(-0.1857303157 0.04640577738 9.660165312e-24)
(-0.2024781817 -0.01023782355 3.313069145e-22)
(-0.2154154732 -0.07499817181 -5.820721126e-22)
(-0.2220209809 -0.1450311464 0)
(-0.218803216 -0.2146760196 8.88728497e-22)
(-0.2016257539 -0.2740015966 -4.940849134e-22)
(-0.166863917 -0.3075811488 -1.572210877e-23)
(-0.1140220053 -0.2953811477 0)
(-0.05288481691 -0.2195802254 -1.890144434e-22)
(-0.004749187646 -0.08377276692 3.360548199e-22)
(-0.0003641993232 0.05902316417 1.551004436e-23)
(-0.01049574408 0.1379881154 -8.764159437e-22)
(-0.0244139042 0.185680362 -1.157055055e-21)
(-0.04026725669 0.2101384216 -8.628950561e-22)
(-0.05630731149 0.2182348392 0)
(-0.07214858378 0.2146189822 3.513794261e-23)
(-0.0877922375 0.2018791616 -7.294844812e-23)
(-0.1034563035 0.1810005399 5.867868496e-23)
(-0.1193984145 0.1518997163 3.02135818e-22)
(-0.1357931841 0.1139150612 -1.128193014e-23)
(-0.1526082628 0.06621426415 0)
(-0.1694521683 0.008177226089 -3.603920279e-22)
(-0.1852760892 -0.06015984839 7.515650968e-22)
(-0.1980448781 -0.1372746684 8.831684719e-22)
(-0.2043546478 -0.2189261527 -5.29660819e-22)
(-0.1990977762 -0.2959712522 5.162670913e-22)
(-0.1760605409 -0.3514072175 1.078220875e-23)
(-0.1300890651 -0.3584150378 -1.095535722e-23)
(-0.06688803194 -0.2843276182 -8.215722725e-23)
(-0.007083319545 -0.1169964276 0)
(-0.0009095784767 0.06540040471 -1.911481071e-23)
(-0.01167592353 0.1502816118 -1.326961936e-21)
(-0.02388883352 0.2000659141 1.094233685e-21)
(-0.03601342292 0.2244216493 6.734909827e-22)
(-0.04657311133 0.2316587781 6.01461418e-22)
(-0.05577041364 0.2272393297 6.643938724e-22)
(-0.06411249038 0.2141774577 -4.458666716e-23)
(-0.07227565311 0.1936494202 -3.461329518e-22)
(-0.08096976914 0.165602826 2.152158079e-22)
(-0.09087196482 0.1292707408 0)
(-0.1025547878 0.08353083904 0)
(-0.116362258 0.02720012811 2.655392494e-22)
(-0.1321589967 -0.04062003515 8.194328942e-23)
(-0.1489252694 -0.1200128035 -2.821615113e-22)
(-0.1641284605 -0.2089300402 -5.411260242e-23)
(-0.1727877873 -0.3006992201 1.301951269e-22)
(-0.1670311474 -0.3793328773 -3.400484635e-22)
(-0.1365292523 -0.4136451629 -1.594041109e-23)
(-0.08018250314 -0.3538325901 8.204494849e-23)
(-0.01050762281 -0.1594130423 -6.032200256e-22)
(-0.002260499225 0.07348882777 0)
(-0.01580356396 0.1626521547 2.14586906e-21)
(-0.02665044158 0.2117904402 0)
(-0.03422341987 0.2333946881 -1.35180412e-21)
(-0.03759401601 0.2377766437 6.184055612e-23)
(-0.0379968899 0.2312553184 -6.193077483e-22)
(-0.03668270154 0.2171898755 -4.756272805e-22)
(-0.03489040978 0.1968934344 8.301236348e-22)
(-0.03378842797 0.1703342343 -1.885694225e-22)
(-0.03449881418 0.1367221134 0)
(-0.03811577665 0.09479674986 0)
(-0.04564997248 0.04304288481 2.410615853e-23)
(-0.05790808895 -0.02013779046 -6.007188476e-22)
(-0.07514602803 -0.09620647961 -4.309559103e-22)
(-0.09645178766 -0.1855555951 4.637853591e-22)
(-0.1183462928 -0.2853567551 -6.488715466e-22)
(-0.1332715613 -0.3838386303 9.119928925e-23)
(-0.1265351124 -0.4504358468 2.937538214e-23)
(-0.08899154548 -0.4198536134 5.660463245e-22)
(-0.01526917956 -0.2111719597 6.020832922e-22)
(-0.005180900223 0.08598045578 0)
(-0.02525551464 0.1766291043 1.46557961e-22)
(-0.03483409667 0.2205961311 -4.917132566e-23)
(-0.03640016486 0.2354859052 7.64291005e-22)
(-0.03018486517 0.2343406448 -7.005358687e-22)
(-0.01916583635 0.2241603613 4.746468808e-23)
(-0.00561519731 0.2083525641 -1.018607313e-22)
(0.008569557353 0.188124097 -3.389881043e-22)
(0.02179880957 0.1633911242 2.062818542e-22)
(0.03262776302 0.1333242786 0)
(0.03958453569 0.09664087372 0)
(0.04117008556 0.05174058053 -2.902663102e-22)
(0.03578479445 -0.003255379943 0)
(0.02198180689 -0.07058359051 -5.512178088e-22)
(-0.00126488139 -0.1525735342 -1.492375009e-23)
(-0.03310472855 -0.2505949697 2.559729152e-23)
(-0.06909238192 -0.359934137 2.203123298e-22)
(-0.09227828556 -0.4575424383 4.788210532e-24)
(-0.0871809055 -0.4698129253 -5.789432966e-22)
(-0.02103127212 -0.2698972191 0)
(-0.01111631598 0.1085974968 0)
(-0.04248902488 0.1947151602 -8.848461586e-22)
(-0.04795530403 0.2258195363 -5.411029126e-22)
(-0.03919538338 0.2282135359 4.543806098e-22)
(-0.01877833564 0.2182327923 -1.709984678e-24)
(0.007664273618 0.2028220162 -4.561037768e-23)
(0.03667988824 0.1847619622 5.696667624e-22)
(0.06582993694 0.1647118128 -2.766884339e-23)
(0.09327125911 0.1423128159 -2.069777425e-22)
(0.1173891121 0.1166274982 3.142207528e-23)
(0.1365461228 0.08641144827 -3.425911247e-23)
(0.1489668844 0.05017670296 -3.690588341e-23)
(0.1525275401 0.006159181039 3.205628421e-22)
(0.1449366698 -0.04796125657 6.119596122e-22)
(0.1235159502 -0.115305279 -5.101161514e-22)
(0.08633531039 -0.2004195554 -1.616049248e-22)
(0.03199087193 -0.3067806516 1.53131702e-22)
(-0.02362124655 -0.4239837068 7.293664948e-23)
(-0.0649241366 -0.4871612701 1.913293427e-21)
(-0.02509971785 -0.3291544676 2.954993513e-21)
(-0.02004680475 0.1460727417 -4.390201856e-23)
(-0.06416406553 0.2112955841 4.417374571e-23)
(-0.05070231438 0.2177300416 1.000186701e-21)
(-0.01934098925 0.2014679882 -8.270531441e-24)
(0.02414462599 0.1809076058 0)
(0.07154119006 0.1606933231 4.363710742e-23)
(0.1190703044 0.1416495401 -2.273846101e-22)
(0.1644766934 0.1233181766 -9.027934573e-23)
(0.2062250746 0.1048117281 3.680726102e-23)
(0.2429642619 0.08507140366 -1.701651947e-23)
(0.2732207201 0.06296148289 3.429964548e-23)
(0.2952535771 0.03726294654 -6.592669981e-23)
(0.3066970764 0.006535077397 -9.303894042e-23)
(0.3049738061 -0.03087769159 1.517040858e-22)
(0.2863936043 -0.07786290229 0)
(0.2470567919 -0.1399300318 1.505601145e-22)
(0.1810922101 -0.2266299728 2.560015059e-22)
(0.09604449238 -0.3443894917 0)
(-0.006697621023 -0.4552210185 -3.675637817e-21)
(-0.01922408284 -0.3777537558 -2.892622919e-21)
(-0.02591951295 0.2276828815 -9.514200384e-22)
(-0.03998324557 0.2238216539 -1.3889747e-22)
(0.03656136814 0.1810585349 -2.335577187e-22)
(0.1090502999 0.1451059058 -1.193739717e-22)
(0.1817191093 0.1172445447 -4.295815431e-23)
(0.2490090572 0.0962790713 9.783150557e-23)
(0.3100336488 0.08002510003 -1.408588059e-22)
(0.3646209078 0.06656815085 1.297172053e-22)
(0.4126252218 0.05449178841 -8.620101296e-23)
(0.4536250023 0.04270895072 1.132188597e-25)
(0.4867878464 0.03032298724 1.527739028e-23)
(0.5107451135 0.01652902264 7.997191267e-23)
(0.5236597266 0.0005365185439 -1.811120604e-22)
(0.5231797868 -0.0186337285 -1.617142984e-22)
(0.5052323312 -0.04286478636 -4.262932263e-23)
(0.4658715005 -0.07633230983 0)
(0.3952696442 -0.1286089378 -1.846483213e-22)
(0.2916071005 -0.2208468096 8.148769279e-22)
(0.119745508 -0.35250169 1.631602536e-21)
(0.02670547195 -0.3775497975 2.172656385e-21)
(0.2142894475 0.1347447211 9.864984878e-22)
(0.2776311206 0.09870503636 0)
(0.4316592314 0.05810414882 -2.594316506e-22)
(0.530474936 0.03846264963 -1.741662418e-22)
(0.601696574 0.02623419091 0)
(0.6571198915 0.0183192344 -6.009072144e-23)
(0.7015213528 0.01313600821 6.377981522e-23)
(0.7376042401 0.009542126308 -1.80015142e-23)
(0.7669368305 0.006804463853 2.885966457e-23)
(0.7902106573 0.004464744403 2.315027914e-23)
(0.8074554909 0.002221320542 0)
(0.8182621272 -0.0001500741879 -2.873027595e-23)
(0.8216499656 -0.002723847489 0)
(0.8162394161 -0.005712668057 2.738140219e-23)
(0.7991333132 -0.009611382474 1.421681162e-23)
(0.7679986343 -0.01500255095 -5.799414509e-23)
(0.7106555758 -0.02502519968 -2.535664339e-22)
(0.6235183982 -0.04204285426 -6.918106333e-22)
(0.423009102 -0.09182968101 0)
(0.2705674689 -0.1524021842 -2.119484238e-21)
)


// ************************************************************************* //
