/*--------------------------------*- C++ -*----------------------------------*\
  =========                 |
  \\      /  F ield         | OpenFOAM: The Open Source CFD Toolbox
   \\    /   O peration     | Website:  https://openfoam.org
    \\  /    A nd           | Version:  13
     \\/     M anipulation  |
\*---------------------------------------------------------------------------*/
FoamFile
{
    format      ascii;
    class       scalarField;
    location    "30.17";
    object      p_all;
}
// * * * * * * * * * * * * * * * * * * * * * * * * * * * * * * * * * * * * * //


400
(
4.895487395e-07
-0.0005469408321
-0.0008889900245
-0.001016476988
-0.0009376184275
-0.0006847631468
-0.0002954743043
0.0001942585674
0.0007479034537
0.00132496615
0.001879803237
0.002359560828
0.002708851706
0.002874587135
0.002815237062
0.002512806629
0.001987763241
0.001297243207
0.0006383253293
4.243091995e-05
0.0005887098524
7.414487759e-06
-0.0003563257041
-0.000498651742
-0.0004679942185
-0.0002909275868
3.165808041e-06
0.0003850021012
0.0008231772597
0.00128042411
0.001716891149
0.002081419825
0.002323638615
0.002396185227
0.002265194117
0.001921895614
0.001393038182
0.0007436756247
0.0001460384065
-0.000516642742
0.0009529625144
0.0003085597089
-9.270035805e-05
-0.0002390353293
-0.0002329115368
-0.0001044055826
0.0001224363504
0.0004263214497
0.000783519687
0.001162029726
0.001530051373
0.001833454282
0.002022306225
0.002047882958
0.001875049973
0.001493994272
0.0009287001089
0.0002357285378
-0.0004627292082
-0.001299695988
0.000976668588
0.0002585097771
-0.0001917417115
-0.0003440437788
-0.0003533094152
-0.0002563264015
-7.37324235e-05
0.0001818748203
0.000496949042
0.0008512544338
0.001203602033
0.001511074124
0.001712871672
0.001748462031
0.001568976097
0.001151029411
0.0005064482615
-0.000318026797
-0.001233346639
-0.002384137921
0.0004810040215
-0.0002844756404
-0.000763374836
-0.0009150759514
-0.0009361031494
-0.0008676794662
-0.0007247721843
-0.0005078334244
-0.0002165819415
0.0001397326307
0.0005306770781
0.0009079789994
0.001200414928
0.001327099393
0.001211618235
0.0008007764038
8.052859866e-05
-0.0009170608278
-0.002127033956
-0.003655525231
-0.0006858334868
-0.00146661893
-0.001955661912
-0.002106710005
-0.002149484371
-0.00212613211
-0.002041749043
-0.001879123019
-0.001617001949
-0.001244960229
-0.00077853709
-0.0002622727896
0.0002212098226
0.0005620796845
0.0006384252416
0.0003421154658
-0.000392443171
-0.00156347362
-0.003134248835
-0.005141477637
-0.00266128432
-0.003422998495
-0.003914862351
-0.004080235544
-0.004177595584
-0.004246640766
-0.004277652645
-0.004228591775
-0.004046981603
-0.00368902064
-0.003140158585
-0.002426152756
-0.001632904729
-0.0009028365321
-0.0004242321059
-0.0003981027101
-0.0009876515594
-0.002259987549
-0.004232139573
-0.006827709533
-0.005554468697
-0.006269390994
-0.006767675789
-0.006981618036
-0.007194998653
-0.007442884991
-0.007696579653
-0.007881635881
-0.007901594264
-0.00766002867
-0.007086754544
-0.006158892017
-0.004943141106
-0.003604264943
-0.002413341192
-0.001713932005
-0.001842623799
-0.003014436621
-0.00536786536
-0.008661650732
-0.009434678258
-0.01008100818
-0.01059787142
-0.01091010464
-0.01132549652
-0.01187536625
-0.01251072778
-0.01311908942
-0.01354723889
-0.01362280136
-0.01318191712
-0.01212055723
-0.01042746228
-0.008256000223
-0.00595578388
-0.004061373931
-0.003189649054
-0.003842553668
-0.006425946115
-0.01049112519
-0.01431642715
-0.01487541616
-0.01542239851
-0.01588163204
-0.01658945471
-0.01757956782
-0.01878640933
-0.02005852466
-0.0211769999
-0.02187304535
-0.02185681819
-0.02087169879
-0.01877135998
-0.01561954239
-0.01179453045
-0.008036810784
-0.005359385414
-0.004759654092
-0.007180675757
-0.01197874975
-0.02015390893
-0.02060414063
-0.0211743265
-0.02179631908
-0.02285165516
-0.02438988828
-0.02633873338
-0.02851309954
-0.03062702651
-0.03230295148
-0.03309470296
-0.0325401514
-0.03028193479
-0.02617814659
-0.02052436076
-0.0142034127
-0.008691043875
-0.005726130502
-0.007218783369
-0.01246592764
-0.02685591082
-0.02716167695
-0.02770211406
-0.02842252006
-0.02978869926
-0.03188860995
-0.03465836751
-0.03788910658
-0.04123337451
-0.04420448953
-0.04618755962
-0.04647821162
-0.04446252015
-0.03965948371
-0.03212049107
-0.02269823969
-0.01326607216
-0.006485453773
-0.005808158462
-0.01076475792
-0.0343342511
-0.03441766916
-0.03478901244
-0.03540408886
-0.03689138069
-0.03940950495
-0.04291951852
-0.04719712752
-0.05183950272
-0.05625780775
-0.05967916353
-0.06119033318
-0.05977897229
-0.05465523784
-0.04544053733
-0.0326992028
-0.01845260714
-0.006245436788
-0.001673497591
-0.004873142721
-0.04260937938
-0.04227896144
-0.04219518946
-0.04229550741
-0.04351323833
-0.0461159089
-0.05009909664
-0.05521984281
-0.06101450786
-0.06679561253
-0.07163956149
-0.07441247489
-0.07383205551
-0.06867439888
-0.05807148576
-0.0420613803
-0.0224396094
-0.003256794471
0.007347482983
0.008341863989
-0.05200987905
-0.05076054599
-0.04967738148
-0.048578483
-0.04892633867
-0.05111974753
-0.05517241946
-0.06079574708
-0.06743503953
-0.07428940295
-0.08028228936
-0.08407576207
-0.08413022212
-0.07883713818
-0.0668424285
-0.04752305764
-0.02212710096
0.005502151758
0.02471574371
0.03352776943
-0.0636554822
-0.06018879501
-0.05709695725
-0.0537640161
-0.05246515634
-0.05367981186
-0.05736463529
-0.06313782165
-0.07026227675
-0.07780073645
-0.08449243598
-0.08878567185
-0.08889802578
-0.08283933291
-0.068850449
-0.04562049288
-0.01375118621
0.02441724381
0.05553999318
0.07735622538
-0.0801860549
-0.07107462878
-0.06412090731
-0.05716522769
-0.05343139046
-0.05321546584
-0.05625920637
-0.06191421402
-0.06925934572
-0.07711733088
-0.08401260389
-0.08815208341
-0.08748054524
-0.07965630692
-0.06247919023
-0.03405013099
0.00556522808
0.05859444365
0.1058234665
0.1480681711
-0.1105074698
-0.08585479338
-0.07160678546
-0.05897184061
-0.05191425143
-0.04988399044
-0.05210378463
-0.05750992233
-0.064860734
-0.07270961187
-0.07934103908
-0.08271435831
-0.08052012142
-0.0698870574
-0.04823215922
-0.01272222289
0.03823653646
0.1071325076
0.1779790699
0.2564769064
-0.1684376762
-0.09990898073
-0.07500909995
-0.05479874252
-0.04461989194
-0.04158641778
-0.04371903447
-0.04938294853
-0.05701859278
-0.0649721578
-0.07136303175
-0.07398132202
-0.07013014578
-0.05701366429
-0.03102830156
0.01192971052
0.0755998814
0.1664046438
0.2761624211
0.4377046876
-0.3984289623
-0.1381001388
-0.07497127004
-0.04708930144
-0.0335503786
-0.0300311784
-0.03280337103
-0.03926616874
-0.04755994627
-0.05594049298
-0.06250151148
-0.06503059406
-0.06099585548
-0.04696968301
-0.01875650737
0.02993584606
0.1069560821
0.2334276626
0.4198806155
0.780023799
)


// ************************************************************************* //
