/*--------------------------------*- C++ -*----------------------------------*\
  =========                 |
  \\      /  F ield         | OpenFOAM: The Open Source CFD Toolbox
   \\    /   O peration     | Website:  https://openfoam.org
    \\  /    A nd           | Version:  13
     \\/     M anipulation  |
\*---------------------------------------------------------------------------*/
FoamFile
{
    format      ascii;
    class       surfaceScalarField;
    location    "10";
    object      phi;
}
// * * * * * * * * * * * * * * * * * * * * * * * * * * * * * * * * * * * * * //

dimensions      [0 3 -1 0 0 0 0];

internalField   nonuniform List<scalar> 
180
(
-0.000261795
0.000261797
-0.000986665
0.000724867
-0.00191496
0.00092829
-0.00279211
0.000877147
-0.00336402
0.000571913
-0.00337385
9.83511e-06
-0.00265952
-0.000714337
-0.00142635
-0.00123317
-0.000319414
-0.00110693
-0.000319408
-0.000913294
0.00117509
-0.00276814
0.0025797
-0.00491162
0.00307177
-0.00681673
0.00278226
-0.00797668
0.00173188
-0.00792317
-4.36735e-05
-0.00639879
-0.00223874
-0.00374431
-0.00388765
-0.00111589
-0.00373535
-0.0014353
-0.00148363
0.00265871
-0.00423945
0.00533553
-0.00726428
0.00609662
-0.00990178
0.00541975
-0.0115574
0.00338745
-0.01165
4.90176e-05
-0.009783
-0.00410578
-0.00613664
-0.00753401
-0.00203964
-0.00783236
-0.00347494
-0.00191503
0.00457374
-0.00532383
0.00874433
-0.00898882
0.00976163
-0.0122296
0.00866049
-0.01447
0.00562792
-0.0150501
0.000629033
-0.01334
-0.00581588
-0.00906938
-0.0118046
-0.00337588
-0.0135259
-0.00685081
-0.00218582
0.00675957
-0.00590869
0.0124672
-0.00984047
0.0136934
-0.0133897
0.0122097
-0.0161183
0.00835651
-0.0174204
0.0019311
-0.0164369
-0.00679931
-0.0122722
-0.0159693
-0.00526677
-0.0205313
-0.0121176
-0.00229612
0.00905569
-0.00585059
0.0160217
-0.00938122
0.017224
-0.0125374
0.0153659
-0.0152
0.0110191
-0.017045
0.00377614
-0.0172439
-0.00660047
-0.0143352
-0.018878
-0.00728209
-0.0275844
-0.0193997
-0.00236804
0.0114237
-0.00519551
0.0188491
-0.00728433
0.0193129
-0.00883197
0.0169136
-0.0102819
0.012469
-0.0118904
0.00538457
-0.0132953
-0.00519548
-0.0128986
-0.0192747
-0.0081181
-0.032365
-0.0275178
-0.0029332
0.0143569
-0.00442996
0.0203459
-0.00343912
0.018322
-0.00163517
0.0151096
-0.000305082
0.0111389
-0.000316128
0.00539558
-0.00221116
-0.00330044
-0.00520408
-0.0162818
-0.00580863
-0.0317604
-0.0333264
-0.00534367
0.0197006
-0.000965137
0.0159673
0.00658216
0.0107747
0.0135474
0.0081444
0.0188482
0.00583814
0.0213571
0.00288665
0.0196218
-0.00156509
0.0129331
-0.00959305
0.00318276
-0.0220101
-0.0301436
0.0197006
0.035668
0.0464427
0.0545871
0.0604252
0.0633119
0.0617468
0.0521537
0.0301436
)
;

boundaryField
{
    movingWall
    {
        type            calculated;
        value           uniform 0;
    }
    fixedWalls
    {
        type            calculated;
        value           uniform 0;
    }
    frontAndBack
    {
        type            empty;
    }
}


// ************************************************************************* //
