/*--------------------------------*- C++ -*----------------------------------*\
  =========                 |
  \\      /  F ield         | OpenFOAM: The Open Source CFD Toolbox
   \\    /   O peration     | Website:  https://openfoam.org
    \\  /    A nd           | Version:  13
     \\/     M anipulation  |
\*---------------------------------------------------------------------------*/
FoamFile
{
    format      ascii;
    class       volVectorField;
    location    "10";
    object      U_0;
}
// * * * * * * * * * * * * * * * * * * * * * * * * * * * * * * * * * * * * * //

dimensions      [0 1 -1 0 0 0 0];

internalField   nonuniform List<vector> 
100
(
(-0.000482809 0.000447405 0)
(-0.0056415 0.00161024 0)
(-0.0141074 0.00222937 0)
(-0.0234062 0.0023127 0)
(-0.0308595 0.00181455 0)
(-0.0338778 0.000540422 0)
(-0.0303037 -0.00130623 0)
(-0.020261 -0.00280021 0)
(-0.0080502 -0.00250019 0)
(-0.000533809 -0.000416278 0)
(-0.00217315 0.00609624 0)
(-0.016874 0.0144331 0)
(-0.0373679 0.0178234 0)
(-0.0582973 0.0165738 0)
(-0.0741516 0.0107341 0)
(-0.0799732 0.000346611 0)
(-0.0720142 -0.0123646 0)
(-0.0504796 -0.0217325 0)
(-0.022817 -0.0202553 0)
(-0.00243208 -0.00715654 0)
(-0.00368963 0.0178045 0)
(-0.0265629 0.0370161 0)
(-0.0562023 0.0430386 0)
(-0.0854783 0.0384951 0)
(-0.107656 0.0239454 0)
(-0.116796 -0.000149666 0)
(-0.107919 -0.0292785 0)
(-0.0797797 -0.0521024 0)
(-0.0396313 -0.0519512 0)
(-0.00475851 -0.0219443 0)
(-0.00484538 0.0345582 0)
(-0.0340135 0.0674615 0)
(-0.0704448 0.0759681 0)
(-0.106224 0.0671182 0)
(-0.134528 0.0423705 0)
(-0.149099 0.00211513 0)
(-0.14341 -0.0480188 0)
(-0.113198 -0.0914973 0)
(-0.0626601 -0.0991504 0)
(-0.00862441 -0.047322 0)
(-0.00561151 0.0549396 0)
(-0.0387305 0.10304 0)
(-0.0785316 0.113827 0)
(-0.117559 0.100653 0)
(-0.150117 0.0661756 0)
(-0.170767 0.00971438 0)
(-0.171972 -0.0641689 0)
(-0.145996 -0.136217 0)
(-0.0915735 -0.163328 0)
(-0.0149753 -0.0884555 0)
(-0.00603742 0.0774734 0)
(-0.0402713 0.140125 0)
(-0.0776968 0.152139 0)
(-0.113098 0.135 0)
(-0.143615 0.092968 0)
(-0.16664 0.0233085 0)
(-0.175836 -0.0731061 0)
(-0.161375 -0.179191 0)
(-0.115675 -0.241407 0)
(-0.0232725 -0.153133 0)
(-0.0065452 0.101598 0)
(-0.0397802 0.173853 0)
(-0.0662863 0.183224 0)
(-0.0863118 0.161955 0)
(-0.102607 0.11614 0)
(-0.118268 0.0407442 0)
(-0.131647 -0.0692567 0)
(-0.13376 -0.205965 0)
(-0.112758 -0.316799 0)
(-0.0293434 -0.245316 0)
(-0.0096844 0.133416 0)
(-0.0430266 0.199209 0)
(-0.0456037 0.195548 0)
(-0.0315923 0.167808 0)
(-0.0159749 0.123631 0)
(-0.0088905 0.0556019 0)
(-0.0167358 -0.0473908 0)
(-0.0353201 -0.193209 0)
(-0.0550139 -0.348152 0)
(-0.0182693 -0.334851 0)
(-0.0339889 0.189156 0)
(-0.0432936 0.21043 0)
(0.0245794 0.167589 0)
(0.0979349 0.133793 0)
(0.158754 0.0996413 0)
(0.198222 0.054789 0)
(0.203641 -0.0124108 0)
(0.172841 -0.122452 0)
(0.0975067 -0.274109 0)
(0.0556351 -0.321874 0)
(0.224203 0.10531 0)
(0.283813 0.0977228 0)
(0.403674 0.0641128 0)
(0.505039 0.0440748 0)
(0.576005 0.0310472 0)
(0.619724 0.0197051 0)
(0.624579 0.00505187 0)
(0.586771 -0.0154777 0)
(0.459141 -0.0585948 0)
(0.321897 -0.110477 0)
)
;

boundaryField
{
    movingWall
    {
        type            calculated;
        value           uniform (1 0 0);
    }
    fixedWalls
    {
        type            calculated;
        value           uniform (0 0 0);
    }
    frontAndBack
    {
        type            empty;
    }
}


// ************************************************************************* //
