/*--------------------------------*- C++ -*----------------------------------*\
  =========                 |
  \\      /  F ield         | OpenFOAM: The Open Source CFD Toolbox
   \\    /   O peration     | Website:  https://openfoam.org
    \\  /    A nd           | Version:  13
     \\/     M anipulation  |
\*---------------------------------------------------------------------------*/
FoamFile
{
    format      ascii;
    class       scalarField;
    location    "33";
    object      p_all;
}
// * * * * * * * * * * * * * * * * * * * * * * * * * * * * * * * * * * * * * //


400
(
-7.605047231e-12
-0.000523366607
-0.001160175486
-0.001650769846
-0.001876197086
-0.001787713162
-0.001361616036
-0.0005877731416
0.0005240625423
0.001929525199
0.003534892601
0.00519090711
0.006703507408
0.007864961863
0.008503373592
0.00853849668
0.008024783065
0.00716555182
0.006288856369
0.005739269335
0.0005301772048
-1.126359944e-05
-0.000572453783
-0.0009637148583
-0.001131478094
-0.001049305941
-0.0006968736946
-5.996828422e-05
0.0008609444619
0.002036302096
0.003392854187
0.004806739502
0.006110607541
0.007121439581
0.007685486972
0.007729654261
0.007299411132
0.006564069998
0.005781932093
0.005222592796
0.001191886684
0.0005132134301
-7.97620738e-05
-0.0004372241046
-0.0005901069335
-0.0005459549989
-0.0002903778994
0.000198212687
0.0009351643437
0.001912261002
0.00307968976
0.004334674371
0.005524459245
0.006470427514
0.007012699342
0.007063935771
0.006649521305
0.005907240215
0.00504068426
0.004311675261
0.00166559211
0.0007900900198
8.169684907e-05
-0.000318475325
-0.0005175542115
-0.0005557176539
-0.0004223892331
-8.405685482e-05
0.0004965171873
0.001337741945
0.002414740185
0.003640691507
0.004863127199
0.005884551117
0.006509290717
0.006606690278
0.006164161678
0.005292522133
0.004176946815
0.003147981559
0.001699392094
0.0006244458727
-0.0002254226521
-0.0007116410689
-0.001006227257
-0.001174522126
-0.001203833841
-0.001042663506
-0.0006251391886
0.0001009320192
0.001142042692
0.00243109852
0.003812674983
0.005057297718
0.005908697899
0.00616006762
0.005730633293
0.004692027513
0.003231080591
0.001806762297
0.00108487401
-0.0001682866526
-0.001161453927
-0.001762733786
-0.002199154656
-0.002553322886
-0.002804210557
-0.002876101774
-0.00266671244
-0.002079564521
-0.001063692958
0.0003481411298
0.002005924547
0.0036452816
0.004927193639
0.005527278665
0.005246801389
0.004080522008
0.002214584325
0.0002969223322
-0.0003535112753
-0.001753232972
-0.00288341187
-0.003626145001
-0.004254870828
-0.004863461165
-0.00541836281
-0.005814806084
-0.005906069521
-0.005537450377
-0.004591861232
-0.003045728034
-0.001014821052
0.001212676686
0.00319992357
0.00445547567
0.004586316132
0.003432841749
0.001141986273
-0.001380249139
-0.002751712697
-0.004260104037
-0.005517160517
-0.006427349683
-0.007303374787
-0.008247556233
-0.009213269357
-0.0100649516
-0.01060505038
-0.01060597994
-0.009858922491
-0.008241276205
-0.005794018356
-0.002791896306
0.0002361368667
0.002584562699
0.003562040917
0.002719329864
6.180205421e-05
-0.003177839593
-0.006194468769
-0.007768964077
-0.009137395537
-0.0102349642
-0.01140917314
-0.01277247065
-0.01426946233
-0.01573674542
-0.01692365134
-0.0175173644
-0.01718951699
-0.01567279265
-0.01286863868
-0.008969769069
-0.004552557946
-0.000556627264
0.001911571926
0.001908732365
-0.0009068783207
-0.004942338488
-0.01070571571
-0.01229947575
-0.01375138785
-0.01503484689
-0.01653333461
-0.0183773862
-0.02051265098
-0.02275621811
-0.02480809107
-0.02626484577
-0.02665738365
-0.02552924262
-0.02257033867
-0.01779057111
-0.01171423197
-0.005471686382
-0.0006720989166
0.0009879943826
-0.0015245846
-0.006326977021
-0.01624835524
-0.01780910346
-0.01929035435
-0.02071014001
-0.02250067107
-0.02482741363
-0.02765210385
-0.03078474545
-0.03388537261
-0.0364637402
-0.03790240964
-0.03752564376
-0.03475387799
-0.02929776638
-0.02147999776
-0.01248360053
-0.004411913564
3.31634956e-05
-0.001353785146
-0.006660365807
-0.02274268082
-0.02420743106
-0.02561450201
-0.02703469117
-0.02898390382
-0.03169181406
-0.03515467538
-0.03918776236
-0.04342159407
-0.04728921287
-0.05003364037
-0.05076238173
-0.04856678864
-0.04279678197
-0.03340057164
-0.02138324606
-0.00917522403
-0.0006171994942
0.0003748985472
-0.004750267887
-0.03011522846
-0.03139274818
-0.03253401586
-0.03368306808
-0.03551330163
-0.03836307895
-0.04228006178
-0.04708954077
-0.05239558612
-0.05756177267
-0.06170408144
-0.06372461162
-0.06241938002
-0.0567178585
-0.04607467578
-0.03105843774
-0.01409555692
-5.696320714e-05
0.004999810066
0.001397985041
-0.03840022463
-0.03931657425
-0.03984125002
-0.04025222517
-0.04151182688
-0.04412165087
-0.04818456483
-0.05352216086
-0.0596973352
-0.06599723168
-0.0714171701
-0.0746769566
-0.07430542624
-0.06884193708
-0.05721015752
-0.03934996952
-0.01727179347
0.003541126363
0.01477869772
0.01494064582
-0.04794230039
-0.04808621615
-0.04734477348
-0.04628524048
-0.04635025505
-0.0482385414
-0.05207496424
-0.05763227483
-0.06439138274
-0.07153347985
-0.07791944158
-0.08209265321
-0.08234203231
-0.07686916246
-0.0641155021
-0.04334306964
-0.01580386199
0.01308111641
0.03314251294
0.04041526726
-0.05974337713
-0.05813292673
-0.05491408393
-0.05130855365
-0.04943254297
-0.05011056116
-0.05338136338
-0.05888217718
-0.0659440701
-0.07359172307
-0.08051609197
-0.08506454067
-0.08528525781
-0.07906821797
-0.06443740639
-0.04004778496
-0.006248346508
0.03232307454
0.06449931594
0.08327448476
-0.07605184713
-0.07052803778
-0.06252062913
-0.05487370758
-0.05029282414
-0.04938205085
-0.0518764391
-0.05715008818
-0.06430165387
-0.07214095242
-0.07914839966
-0.08344424736
-0.08280857199
-0.07478837144
-0.05696787348
-0.02741070839
0.01446187312
0.06540184726
0.1143087701
0.1501010703
-0.1040134653
-0.08780707082
-0.06990935034
-0.05623705034
-0.0483418404
-0.04570739929
-0.04744284576
-0.05250554311
-0.05967338401
-0.06750554102
-0.07426319203
-0.07783743798
-0.0757328637
-0.06509484539
-0.04291187819
-0.006341949917
0.04657964522
0.115169784
0.1913551319
0.2581578457
-0.1758513442
-0.1147873266
-0.07357810023
-0.05189778739
-0.04119221685
-0.03754605423
-0.03918608477
-0.04456064718
-0.0520785532
-0.06008881266
-0.06671849046
-0.06971142352
-0.06638246689
-0.05353907885
-0.02744380466
0.01625459026
0.08253148513
0.1771716748
0.3052168267
0.4525321041
-0.3557230379
-0.1551538123
-0.07038621884
-0.04278047126
-0.03135595229
-0.02757549895
-0.02969554497
-0.03581158838
-0.0439988869
-0.05247272546
-0.05933105971
-0.0623141814
-0.0586892472
-0.04511654661
-0.01728308272
0.03069966688
0.1082657961
0.2331873454
0.4346385444
0.735718
)


// ************************************************************************* //
