/*--------------------------------*- C++ -*----------------------------------*\
  =========                 |
  \\      /  F ield         | OpenFOAM: The Open Source CFD Toolbox
   \\    /   O peration     | Website:  https://openfoam.org
    \\  /    A nd           | Version:  13
     \\/     M anipulation  |
\*---------------------------------------------------------------------------*/
FoamFile
{
    format      ascii;
    class       surfaceScalarField;
    location    "33";
    object      phi;
}
// * * * * * * * * * * * * * * * * * * * * * * * * * * * * * * * * * * * * * //

dimensions      [0 3 -1 0 0 0 0];

internalField   nonuniform List<scalar> 
760
(
-1.322024903e-05
1.321713641e-05
-7.201843496e-05
5.87981894e-05
-0.0001620729068
9.005447713e-05
-0.0002652227398
0.0001031498334
-0.0003682421767
0.0001030194351
-0.0004615038227
9.326165045e-05
-0.0005377493192
7.624550918e-05
-0.0005912413425
5.349203736e-05
-0.0006175085432
2.626720897e-05
-0.0006135886236
-3.919918645e-06
-0.0005784593994
-3.512922597e-05
-0.0005138423293
-6.461706837e-05
-0.0004246592103
-8.91831131e-05
-0.0003192816505
-0.0001053775529
-0.0002092254219
-0.0001100562246
-0.0001081386984
-0.0001010867229
-2.992513281e-05
-7.821356504e-05
1.414922742e-05
-4.407435879e-05
2.190948161e-05
-7.760259669e-06
2.190949032e-05
-6.870391724e-05
8.192105666e-05
-0.0002457758454
0.0002358701221
-0.0004934729433
0.0003377515869
-0.0007722770028
0.0003819539102
-0.001050408009
0.000381150453
-0.001303004323
0.0003458579645
-0.001510602089
0.0002838432698
-0.00165786993
0.0002007598759
-0.001733197437
0.0001015947263
-0.00172930331
-7.814020785e-06
-0.001643829249
-0.000120603265
-0.001481412243
-0.0002270340615
-0.001254380525
-0.0003162148297
-0.0009832940324
-0.000376464053
-0.0006961412053
-0.0003972090587
-0.0004257313693
-0.0003714965578
-0.0002049933549
-0.0002989515691
-5.981244138e-05
-0.0001892552602
-4.922362322e-07
-6.708043704e-05
2.141724766e-05
-0.000122934298
0.0002048553613
-0.0004149720632
0.0005279078908
-0.0008086672313
0.0007314467548
-0.001247163387
0.0008204500712
-0.00168465901
0.0008186460889
-0.002084427117
0.0007456260887
-0.002416962083
0.0006163782517
-0.002658572453
0.0004423702565
-0.002790987746
0.0002340100245
-0.002802409843
3.608072073e-06
-0.002687898737
-0.0002351143653
-0.002452958707
-0.0004619740853
-0.002114169441
-0.0006550040915
-0.001700372608
-0.0007902608832
-0.001251821315
-0.0008457603464
-0.0008167441492
-0.0008065737105
-0.000444623115
-0.000671072581
-0.0001762320752
-0.0004576462743
-3.221225281e-05
-0.0002111002523
-1.079500501e-05
-0.0001720781917
0.0003769335595
-0.0005725599476
0.0009283896619
-0.001105966056
0.001264852866
-0.001698033684
0.0014125177
-0.0022905933
0.001411205706
-0.002837249797
0.00129228259
-0.00330021203
0.001079340493
-0.003648286426
0.0007904446652
-0.003856333229
0.0004420568414
-0.003905810635
5.308549367e-05
-0.003787742631
-0.0003531823601
-0.003504020418
-0.0007456962921
-0.003071268824
-0.001087755682
-0.00252262805
-0.001338901651
-0.001907994225
-0.001460394159
-0.001290904362
-0.001423663552
-0.0007407536158
-0.001221223301
-0.0003202706718
-0.0008781291989
-7.110219641e-05
-0.0004602687235
-8.189719956e-05
-0.0002170217798
0.0005939553401
-0.0007188320712
0.00143019997
-0.001385653437
0.001931674246
-0.002127119969
0.002153984242
-0.002874369378
0.00215845512
-0.003573189553
0.001991102767
-0.004178972761
0.001685123703
-0.004653577317
0.001265049227
-0.004964191409
0.000752670944
-0.005084010287
0.0001729043878
-0.004995016634
-0.0004421759994
-0.004691183039
-0.001049529877
-0.004183513095
-0.001595425622
-0.003504385789
-0.002018028953
-0.002710447181
-0.002254332758
-0.001881575987
-0.002252534729
-0.001113232085
-0.001989567185
-0.0005008205906
-0.001490540684
-0.0001191420202
-0.0008419472925
-0.0002010392169
-0.0002573663453
0.0008513216858
-0.0008513384631
0.002024172093
-0.001642294094
0.002722629888
-0.002526553321
0.00303824348
-0.003426895846
0.003058797656
-0.004283382269
0.002847589198
-0.005046207355
0.002447948793
-0.005671010096
0.001889851972
-0.006116743134
0.001198403989
-0.006345973635
0.000402134901
-0.006327835429
-0.000460314192
-0.006042468975
-0.001334896321
-0.005488317385
-0.002149577209
-0.004689976773
-0.002816369564
-0.003705723605
-0.003238585923
-0.002631180624
-0.003327077703
-0.001594225316
-0.003026522485
-0.0007363864791
-0.002348379518
-0.0001821204641
-0.001396213306
-0.000383159678
-0.0002911837024
0.001142505397
-0.0009641238349
0.002697112228
-0.00186416103
0.003622667089
-0.002878141498
0.004052223955
-0.003923459075
0.004104115241
-0.004936994857
0.003861124988
-0.005865881105
0.003376835048
-0.00666099363
0.002684964502
-0.00727343094
0.001810841307
-0.007653964518
0.0007826684902
-0.007755797205
-0.0003584814927
-0.007539780553
-0.001550912964
-0.006984020456
-0.002705337302
-0.006095808368
-0.003704581651
-0.00492569947
-0.004408694821
-0.003579476505
-0.004673300666
-0.002220386145
-0.004385612841
-0.001050844677
-0.003517920983
-0.000268467521
-0.002178590457
-0.0006516271955
-0.00031596518
0.001458470588
-0.001048736271
0.003429883329
-0.002034529201
0.004608460026
-0.003154899941
0.005172594702
-0.004325127977
0.005274343284
-0.005481842971
0.005017839986
-0.006571924873
0.004466916955
-0.00754411294
0.003657152576
-0.008343802735
0.002610531112
-0.008911121758
0.001349987526
-0.00918279774
-8.680549735e-05
-0.009097004735
-0.001636705957
-0.008604576947
-0.003197765082
-0.007684192704
-0.00462496589
-0.006364063281
-0.005728824241
-0.004746039595
-0.006291324347
-0.003022879811
-0.006108772621
-0.0014695801
-0.005071220689
-0.000388244207
-0.003259926343
-0.001039871398
-0.0003291952919
0.001787665884
-0.001096441975
0.004197130027
-0.002135077601
0.005647095663
-0.003325365199
0.006362882309
-0.004583647303
0.006532625396
-0.005849368047
0.006283560734
-0.00707256885
0.00569011776
-0.008203818056
0.004788401787
-0.00918725124
0.003593964306
-0.009956886385
0.002119622685
-0.01043606223
0.0003923703612
-0.01054224276
-0.001530525407
-0.01019502846
-0.00354497937
-0.009334083311
-0.005485911031
-0.007946624032
-0.007116283511
-0.006105922881
-0.008132025489
-0.004012927612
-0.008201767882
-0.002014591606
-0.007069556685
-0.0005528018178
-0.004721716122
-0.001592673211
-0.0003297927073
0.002117458593
-0.001101701236
0.004969038566
-0.002151422089
0.006696816528
-0.003361075877
0.00757253611
-0.004650842851
0.00782239238
-0.005965953457
0.007598671346
-0.007263375442
0.006987539747
-0.008500561612
0.006025587959
-0.009627007225
0.004720409925
-0.01057859806
0.003071213534
-0.01127459061
0.001088362919
-0.01161814417
-0.001186971832
-0.01150162459
-0.003661498934
-0.01082052188
-0.006167013725
-0.009502997467
-0.008433807907
-0.007560605523
-0.01007441742
-0.00516087085
-0.01060150254
-0.002696114184
-0.009534313339
-0.0007741498984
-0.006643680397
-0.002366823105
-0.0003199349595
0.002437393558
-0.001066686672
0.005715790286
-0.002080423675
0.007710553541
-0.003246814087
0.008738926534
-0.004492307157
0.009067885462
-0.005770872286
0.008877236482
-0.007050314937
0.008266982402
-0.008300540901
0.007275813926
-0.009484300848
0.005904169875
-0.0105499614
0.004136874097
-0.01142561953
0.001964021055
-0.01201417096
-0.000598420391
-0.01219379317
-0.003481876711
-0.01182096714
-0.00653983974
-0.01075537668
-0.009499398346
-0.008913748593
-0.0119160455
-0.006370856029
-0.0131443951
-0.003498963994
-0.01240620536
-0.001063150955
-0.009079493426
-0.003429974055
-0.0003074096437
0.002744803208
-0.001006588031
0.006414968679
-0.001938355676
0.008642321195
-0.002991900074
0.009792470946
-0.00410281475
0.01017880015
-0.00523745047
0.01001187221
-0.006378629742
0.009408161682
-0.007514085809
0.008411269997
-0.008627334051
0.007017418121
-0.009689846677
0.005199386726
-0.01065314493
0.002927319316
-0.01143757029
0.0001860049795
-0.01192945826
-0.002989988735
-0.01196499191
-0.006504306077
-0.01134373964
-0.01012065061
-0.009868967687
-0.01339081743
-0.007460113611
-0.01555324916
-0.004363833857
-0.01550248511
-0.001425535293
-0.01201779198
-0.004855509343
-0.0003089286666
0.00305373188
-0.0009555685948
0.007061608614
-0.001768492043
0.009455244654
-0.002639393349
0.01066337227
-0.003518265544
0.01105767236
-0.004389726768
0.01088333345
-0.005256723963
0.01027515889
-0.006129519831
0.009284065874
-0.007017712873
0.007905611169
-0.007923332743
0.0061050066
-0.008832219447
0.003836206024
-0.009704220542
0.00105800608
-0.01045073187
-0.002243477405
-0.01092412471
-0.00603091323
-0.01089503196
-0.01014974335
-0.01006489027
-0.01422095911
-0.008157306406
-0.01746083302
-0.005167631691
-0.01849215981
-0.001854348835
-0.01533107483
-0.006709858174
-0.0003552706276
0.00340900251
-0.000973334876
0.007679672869
-0.001646060459
0.01012797025
-0.002268714707
0.01128602653
-0.002816845505
0.01160580317
-0.003303700117
0.01137018808
-0.003759417357
0.01073087614
-0.004220932712
0.00974558124
-0.004726155359
0.008410833825
-0.005309771393
0.006688622641
-0.005996665346
0.004523099981
-0.006791806716
0.001853147454
-0.007660593456
-0.00137469066
-0.008503036321
-0.005188470359
-0.009113183837
-0.009539595828
-0.009142512169
-0.01419163077
-0.008128403068
-0.01847494211
-0.005711157494
-0.02090940538
-0.00231828488
-0.01872394743
-0.009028143051
-0.0005003777062
0.003909380217
-0.001151298569
0.008330593739
-0.0016748248
0.01065149649
-0.001981645779
0.01159284752
-0.002095679409
0.01171983682
-0.00207574385
0.01135025253
-0.001988486283
0.01064361859
-0.001901161043
0.009658256014
-0.001878937173
0.008388609968
-0.00198598119
0.006795666669
-0.002282476804
0.004819595604
-0.002818765131
0.002389435788
-0.003622160925
-0.0005712948599
-0.004668850692
-0.004141780585
-0.00583464157
-0.008373804943
-0.006807668853
-0.01321860348
-0.007016672246
-0.01826593871
-0.005716402691
-0.02220967493
-0.002739567473
-0.02170078265
-0.01176771052
-0.0008308860674
0.004740266286
-0.001604835059
0.009104542737
-0.001950983441
0.01099764488
-0.001839388768
0.01148125285
-0.001385442521
0.01126589058
-0.0007181407462
0.01068295076
4.82032308e-05
0.009877274622
0.0008163942659
0.008890064993
0.001495350127
0.007709654122
0.001998413915
0.006292602894
0.002238507816
0.004579501715
0.002128345899
0.002499597714
0.0015831518
-2.61007511e-05
0.0005450241696
-0.003103652945
-0.0009843209325
-0.006844459832
-0.002828406913
-0.0113745175
-0.004459129748
-0.01663521587
-0.004810491565
-0.0218583131
-0.002944291524
-0.02356698268
-0.01471200204
-0.001465683084
0.006205949371
-0.002379878539
0.0100187382
-0.002373448533
0.01099121488
-0.001603547411
0.01071135174
-0.0003496335715
0.01001197674
0.001163634037
0.009169683164
0.002771832618
0.008269076053
0.004349524269
0.007312373356
0.005791613889
0.006267564516
0.006998005519
0.005086211278
0.007865484596
0.003712022651
0.00828227747
0.002082804852
0.008123815436
0.0001323612932
0.007264490885
-0.002244328385
0.005585208102
-0.00516517704
0.003073869061
-0.008863178447
7.896931173e-05
-0.01364031611
-0.002445749149
-0.01933359463
-0.002601078653
-0.02341165317
-0.01731308069
-0.002365504223
0.008571453596
-0.002963809748
0.01061704374
-0.001922816375
0.009950221513
8.111150322e-05
0.008707423864
0.002534881854
0.007558206395
0.005140249195
0.00656431583
0.007719746153
0.005689579104
0.01015461361
0.004877505913
0.01234956554
0.004072612596
0.01421199469
0.003223782144
0.01564053326
0.002283484088
0.01651758292
0.001205755199
0.01669709444
-4.715021873e-05
0.01602712198
-0.001574355911
0.01430508662
-0.003443141672
0.01133282804
-0.005890919859
0.007055611531
-0.009363099596
0.002201622276
-0.01447960537
-0.001027321146
-0.02018270974
-0.01834040183
-0.002150342736
0.01072179634
-7.199465738e-05
0.008538695671
0.003741897849
0.006136329021
0.007719771278
0.004729550443
0.01156186831
0.003716109371
0.01514100674
0.002985177402
0.01839885146
0.00243173439
0.02130155025
0.001974807125
0.02381242824
0.001561734612
0.02587972954
0.00115648085
0.02743056419
0.000732649446
0.02836472408
0.0002715953235
0.02857561425
-0.0002580403806
0.02788766282
-0.0008864044741
0.02609933954
-0.001654818384
0.02290826442
-0.002699844737
0.0179069659
-0.004361801066
0.01076690753
-0.007339546988
0.002912180098
-0.0123279823
-0.01542822173
0.01072179635
0.01926049203
0.02539682106
0.0301263715
0.03384248087
0.03682765827
0.03925939267
0.04123419979
0.04279593441
0.04395241526
0.04468506471
0.04495666004
0.04469861966
0.04381221519
0.04215739681
0.03945755208
0.03509575102
0.02775620403
0.01542822173
)
;

boundaryField
{
    movingWall
    {
        type            calculated;
        value           uniform 0;
    }
    fixedWalls
    {
        type            calculated;
        value           uniform 0;
    }
    frontAndBack
    {
        type            empty;
    }
}


// ************************************************************************* //
