/*--------------------------------*- C++ -*----------------------------------*\
  =========                 |
  \\      /  F ield         | OpenFOAM: The Open Source CFD Toolbox
   \\    /   O peration     | Website:  https://openfoam.org
    \\  /    A nd           | Version:  13
     \\/     M anipulation  |
\*---------------------------------------------------------------------------*/
FoamFile
{
    format      ascii;
    class       surfaceScalarField;
    location    "33";
    object      phi;
}
// * * * * * * * * * * * * * * * * * * * * * * * * * * * * * * * * * * * * * //

dimensions      [0 3 -1 0 0 0 0];

internalField   nonuniform List<scalar> 
760
(
4.40128526e-06
-4.401293827e-06
-3.888428152e-05
4.328591595e-05
-0.0001310081086
9.21235388e-05
-0.0002561481802
0.0001251405949
-0.0003984782736
0.0001423301798
-0.0005446913417
0.000146213316
-0.0006829979838
0.0001383061124
-0.0008017589901
0.0001187612381
-0.0008889292546
8.717051833e-05
-0.0009327381698
4.380927292e-05
-0.0009235776872
-9.159621419e-06
-0.0008567396467
-6.683680169e-05
-0.0007352056032
-0.0001215336412
-0.0005715286959
-0.0001636765297
-0.0003876728887
-0.0001838549822
-0.0002120092895
-0.0001756633163
-7.345419255e-05
-0.0001385554596
6.334734728e-06
-7.978899005e-05
2.232704925e-05
-1.599178943e-05
2.232677389e-05
-4.704664044e-05
4.2644985e-05
-0.000208328044
0.0002045673795
-0.0004705874252
0.0003543829158
-0.00080140673
0.0004559600505
-0.001166715479
0.0005076385741
-0.00153516772
0.0005146670862
-0.001877480758
0.0004806191014
-0.002164989146
0.0004062696795
-0.002369539164
0.0002917218812
-0.002465491835
0.0001397649698
-0.002433718502
-4.09312896e-05
-0.002266679641
-0.0002338733471
-0.001973421682
-0.0004147893527
-0.001582557734
-0.0005545395965
-0.001141543332
-0.0006248691367
-0.0007107024927
-0.0006065036895
-0.0003516628163
-0.0004975943145
-0.000111631761
-0.0003198192279
-6.184222071e-06
-0.0001214398283
1.614202998e-05
-0.0001110933381
0.000153738525
-0.0004027520944
0.0004962265084
-0.0008291566516
0.0007807876094
-0.001341562335
0.000968367842
-0.001893334711
0.001059410995
-0.002441268037
0.001062599982
-0.002944361714
0.0009837128029
-0.003362618255
0.0008245278408
-0.003657572301
0.0005866781684
-0.003795130192
0.0002773272846
-0.003750448623
-8.561074365e-05
-0.003513914681
-0.0004704070829
-0.003096991429
-0.0008317119912
-0.002536156565
-0.001115372646
-0.001892866975
-0.001268157738
-0.001247345465
-0.001252026512
-0.0006848638855
-0.001060077351
-0.0002756843597
-0.0007289992934
-5.344910509e-05
-0.0003436766148
-3.730705131e-05
-0.0001720124268
0.0003257504603
-0.0005894934675
0.0009137082265
-0.001170863252
0.001362156196
-0.001848637265
0.001646142252
-0.002565165296
0.001775937819
-0.003269113844
0.001766548144
-0.003912257156
0.001626856957
-0.004447682813
0.001359955368
-0.004830273423
0.0009692697329
-0.005019605036
0.0004666608128
-0.004984892754
-0.000120321991
-0.00471129117
-0.000744007843
-0.004206731937
-0.001336270429
-0.003507855912
-0.001814248317
-0.002682777994
-0.002093236565
-0.001827344034
-0.002107462049
-0.001051582507
-0.001835839103
-0.0004559414241
-0.001324642047
-0.0001033330123
-0.0006962857238
-0.0001406400872
-0.000226271333
0.0005520219224
-0.0007575809187
0.001445018565
-0.001479443663
0.002084018372
-0.002306187498
0.002472886742
-0.003170602558
0.00264035246
-0.004015985019
0.002611930571
-0.004790330544
0.002401202462
-0.005443135398
0.002012760485
-0.005924975135
0.00145110992
-0.006189627056
0.0007313135131
-0.006198424829
-0.0001115254964
-0.005926527249
-0.001015906177
-0.005371207659
-0.00189158931
-0.004561006734
-0.002624449416
-0.00356364746
-0.003090597802
-0.002487899162
-0.003183211595
-0.001472946583
-0.002850790964
-0.0006609315635
-0.002136658141
-0.0001576960648
-0.001199520716
-0.0002983358387
-0.0002721266971
0.0008241483541
-0.0009006539161
0.002073545094
-0.001743533549
0.002926897927
-0.002699633803
0.003428986515
-0.003694382905
0.003635100069
-0.004668300797
0.003585847562
-0.005568565353
0.00330146757
-0.006343897252
0.002788092035
-0.006942510828
0.00204972239
-0.007312689811
0.001101492227
-0.007405953658
-1.826234976e-05
-0.007182737062
-0.00123912253
-0.006622272296
-0.002452052749
-0.005735551934
-0.003511169325
-0.004580488533
-0.004245661821
-0.003273126854
-0.004490572924
-0.001984622366
-0.004139294912
-0.0009123174816
-0.003208961758
-0.0002240682465
-0.001887770511
-0.0005224043438
-0.0003077696194
0.001131918158
-0.001012702837
0.002778477537
-0.001951832344
0.003866026116
-0.003012349092
0.004489501857
-0.004114970833
0.004737720461
-0.005200018702
0.004670893317
-0.006216656144
0.004318104819
-0.00711564982
0.003687084456
-0.007845221426
0.002779291886
-0.008349518925
0.001605788847
-0.008569637143
0.0002018570703
-0.008448661693
-0.001360095092
-0.007941263287
-0.0029594495
-0.007030724998
-0.004421707817
-0.005752004199
-0.005524382729
-0.004216179267
-0.006026396979
-0.0026225028
-0.005732972519
-0.001235634635
-0.004595828098
-0.0003118869051
-0.002811520788
-0.0008342920844
-0.0003313502088
0.001463268074
-0.001087792419
0.003534918787
-0.002092697984
0.004870928864
-0.003225566071
0.00562236792
-0.004405032981
0.005917186624
-0.005573648972
0.005839507554
-0.00668530177
0.005429757763
-0.007695929822
0.004697711585
-0.008557112779
0.003640474154
-0.009212051689
0.002260728135
-0.009594078721
0.0005838863247
-0.009629119727
-0.001325050803
-0.00924426982
-0.003344299369
-0.008385925859
-0.0052800539
-0.00704983129
-0.006860477966
-0.005321156752
-0.007755071494
-0.003410993339
-0.007643138106
-0.001655338003
-0.006351483746
-0.0004315087039
-0.004035352529
-0.001265801199
-0.0003416288471
0.001804896392
-0.001121510343
0.004314799189
-0.002156315205
0.005905731515
-0.003321342153
0.006787393733
-0.004535389462
0.007131234025
-0.005745378198
0.007049495431
-0.006912560816
0.006596941044
-0.008001510807
0.005786660542
-0.008971635469
0.004610598719
-0.009770674602
0.003059767945
-0.01033019216
0.001143404073
-0.01056433961
-0.001090903643
-0.01037474815
-0.003533892352
-0.009666021878
-0.005988781379
-0.008378582074
-0.008147917538
-0.006543088624
-0.00959056404
-0.004349257137
-0.009836969099
-0.002189717189
-0.008511024531
-0.0005938349437
-0.005631234011
-0.001859636251
-0.0003390700698
0.002143965876
-0.001113605723
0.005089333532
-0.002138771863
0.006930896234
-0.003288082371
0.00793670366
-0.004482280778
0.008325433693
-0.005674582968
0.00824179774
-0.006836133105
0.007758491423
-0.007943745868
0.00689427094
-0.008969862975
0.005636714581
-0.009874000022
0.003963905395
-0.01059522963
0.001864633325
-0.01104624697
-0.0006398884288
-0.0111126164
-0.003467524074
-0.0106600643
-0.006441331872
-0.009563537006
-0.009244442864
-0.007768686424
-0.01138541335
-0.005393869171
-0.01221178451
-0.002843071761
-0.01106182265
-0.0008097241499
-0.007664581505
-0.002669361911
-0.0003273270787
0.002471292342
-0.00107151749
0.005833523585
-0.002047412206
0.007906791515
-0.003127688829
0.009016980196
-0.004236782777
0.009434529555
-0.005336401102
0.009341416682
-0.006410175617
0.008832265455
-0.007450614599
0.007934706978
-0.008448280396
0.00663437828
-0.009382069075
0.004897693107
-0.0102095569
0.002692121103
-0.01085552545
6.079832033e-06
-0.0112065702
-0.003116477595
-0.01110267285
-0.006545226877
-0.01035611437
-0.00999100146
-0.008805628148
-0.01293590157
-0.00644016031
-0.01457725529
-0.003593285147
-0.01390870009
-0.001088311884
-0.01016955921
-0.003757674237
-0.0003151755192
0.002786467662
-0.001014545186
0.006532893566
-0.00190659388
0.0087988424
-0.00286268536
0.009973072092
-0.00381385066
0.01038569626
-0.004733853022
0.01026141901
-0.005621995583
0.009720407371
-0.00648955637
0.008802266137
-0.007349120346
0.007493941794
-0.008204924028
0.005753496199
-0.009042185681
0.003529381182
-0.009815269167
0.0007791623007
-0.01042777177
-0.002503973943
-0.01072123649
-0.00625176219
-0.01046542623
-0.01024681277
-0.009391246657
-0.0140100802
-0.007309913181
-0.01665858994
-0.004375194018
-0.0168434182
-0.001432984519
-0.01311177169
-0.005190657598
-0.0003192596176
0.003105727585
-0.0009786125568
0.007192246749
-0.001762700687
0.009582932798
-0.002540834506
0.01075120698
-0.003257059429
0.01110192238
-0.003903871941
0.01090822986
-0.004500851167
0.01031738517
-0.005080752406
0.009382166946
-0.005680089008
0.008093278416
-0.006331094071
0.006404500663
-0.007052449479
0.004250735769
-0.007836282618
0.001562995886
-0.008627569939
-0.001712685878
-0.009297631606
-0.005581702708
-0.009612970688
-0.009931475268
-0.009226595079
-0.01439645251
-0.007755694079
-0.01812948959
-0.005064322538
-0.01953478827
-0.001833248272
-0.0163428451
-0.00702390824
-0.000368564185
0.003474291942
-0.001021617877
0.007845300001
-0.001686380153
0.0102476959
-0.002233105221
0.01129793276
-0.002632933322
0.01150175242
-0.0029090274
0.01118432275
-0.003108016902
0.01051637321
-0.003286560682
0.009560711286
-0.003504723137
0.008311441754
-0.00382119956
0.006720974854
-0.004287396289
0.00471692953
-0.004937444149
0.002213043463
-0.005769916596
-0.0008802136436
-0.006715967036
-0.004635652008
-0.007588871824
-0.009058569724
-0.008025839621
-0.01395948398
-0.007484489471
-0.01867084111
-0.005467569958
-0.021551709
-0.002250539334
-0.01955987548
-0.009274448004
-0.000511166163
0.003985458253
-0.001227049467
0.008561183008
-0.001765147053
0.01078579308
-0.002014083538
0.0115468683
-0.002001038742
0.011488709
-0.001799048584
0.01098233328
-0.001490712556
0.01020803698
-0.001158557756
0.009228556465
-0.0008837895489
0.008036673412
-0.0007465817047
0.006583766997
-0.0008251247699
0.004795474798
-0.001191280424
0.002579202903
-0.001899010023
-0.0001724847125
-0.002957319023
-0.003577342382
-0.004273450069
-0.00774243853
-0.005552541374
-0.01268039547
-0.00618553117
-0.01803785206
-0.005319824032
-0.02241741184
-0.002595530325
-0.02228416765
-0.01186997905
-0.0008163948133
0.004801853214
-0.001690560161
0.009435348314
-0.002057868166
0.01115310145
-0.001886317309
0.01137531606
-0.001316196531
0.01091858691
-0.0004975439692
0.01016368085
0.0004422443798
0.009268249229
0.001395008129
0.008275793156
0.002263304636
0.007168376326
0.002953056144
0.005894014703
0.003368522269
0.004380009305
0.003410324185
0.002537400704
0.002978314454
0.0002595205954
0.001986509555
-0.0025855348
0.0004078845063
-0.006163807312
-0.001611442127
-0.01066106569
-0.003537710445
-0.01611158576
-0.004275682306
-0.02167944391
-0.002694170368
-0.02386567539
-0.01456414901
-0.001351395952
0.006153248839
-0.002426978378
0.01051092932
-0.00240075766
0.01112688203
-0.001518583915
0.01049314044
-0.0001355356044
0.009535535905
0.001497923817
0.008530220414
0.003212984215
0.007553191974
0.004886394839
0.006602386366
0.006416860407
0.005637912947
0.007708952416
0.004601924633
0.008662150638
0.003426813379
0.009163621739
0.002035931071
0.009083725128
0.0003394173895
0.008278385503
-0.001780195114
0.006608293046
-0.004493717008
0.004024616701
-0.008077387718
0.0008238917497
-0.01291085878
-0.001896912958
-0.01895863905
-0.002260602472
-0.02350198898
-0.01682475253
-0.002135698971
0.008288947333
-0.002924866354
0.01130009237
-0.001694653133
0.009896667837
0.0005214059049
0.008277081344
0.003095837293
0.00696110346
0.005738749079
0.005887308601
0.008297543876
0.004994399048
0.01067587083
0.004224060581
0.01279951065
0.003514273665
0.01459509727
0.002806341186
0.01597676478
0.002045149077
0.01683739286
0.001175301987
0.01703969947
0.0001371136052
0.01641147171
-0.001151967976
0.01473680301
-0.002819053304
0.01178088451
-0.005121471768
0.007452921236
-0.008582896772
0.002440555561
-0.01394627389
-0.000887027235
-0.0201744059
-0.01771177845
-0.002486552605
0.01077549959
-1.147645272e-05
0.008825010861
0.004176799329
0.005708387895
0.008323309746
0.004130571147
0.01211339387
0.003171020889
0.01551653634
0.0024841684
0.01853409618
0.001976842497
0.02117207263
0.00158608756
0.02342728935
0.001259059118
0.02527725251
0.0009563797971
0.02667498425
0.0006474178558
0.02754276262
0.000307522535
0.02776715096
-8.726905448e-05
0.02718811972
-0.0005729355793
0.02556789736
-0.001198825483
0.02254475479
-0.00209833136
0.01761648977
-0.003654632723
0.01039940863
-0.006729196001
0.002473820956
-0.01224881533
-0.01523795813
0.0107754995
0.01960051034
0.02530889749
0.02943946764
0.03261048865
0.03509465868
0.03707150288
0.03865759043
0.03991664974
0.04087303159
0.04152044943
0.04182796938
0.04174070232
0.04116776213
0.03996893754
0.03787060414
0.03421597214
0.02748677546
0.0152379583
)
;

boundaryField
{
    movingWall
    {
        type            calculated;
        value           uniform 0;
    }
    fixedWalls
    {
        type            calculated;
        value           uniform 0;
    }
    frontAndBack
    {
        type            empty;
    }
}


// ************************************************************************* //
