/*--------------------------------*- C++ -*----------------------------------*\
  =========                 |
  \\      /  F ield         | OpenFOAM: The Open Source CFD Toolbox
   \\    /   O peration     | Website:  https://openfoam.org
    \\  /    A nd           | Version:  13
     \\/     M anipulation  |
\*---------------------------------------------------------------------------*/
FoamFile
{
    format      ascii;
    class       surfaceScalarField;
    location    "33";
    object      phi_0;
}
// * * * * * * * * * * * * * * * * * * * * * * * * * * * * * * * * * * * * * //

dimensions      [0 3 -1 0 0 0 0];

internalField   nonuniform List<scalar> 
760
(
-1.322025752e-05
1.321712723e-05
-7.20184369e-05
5.879818317e-05
-0.0001620729079
9.005447843e-05
-0.0002652227365
0.000103149842
-0.0003682421661
0.0001030194407
-0.0004615038125
9.32616433e-05
-0.0005377493185
7.624549249e-05
-0.0005912413509
5.349202397e-05
-0.0006175085516
2.626720861e-05
-0.0006135886239
-3.919906556e-06
-0.0005784593885
-3.512921441e-05
-0.0005138423124
-6.461706449e-05
-0.0004246591953
-8.918311829e-05
-0.0003192816443
-0.0001053775619
-0.0002092254294
-0.000110056231
-0.000108138721
-0.000101086725
-2.992516621e-05
-7.821356664e-05
1.414920454e-05
-4.407436288e-05
2.190947869e-05
-7.760235147e-06
2.190951261e-05
-6.870392349e-05
8.192105487e-05
-0.0002457758386
0.0002358701191
-0.000493472933
0.0003377515771
-0.0007722769993
0.0003819538991
-0.00105040801
0.0003811504485
-0.001303004321
0.0003458579698
-0.001510602079
0.0002838432814
-0.001657869913
0.0002007598861
-0.001733197419
0.0001015947278
-0.001729303301
-7.81403635e-06
-0.001643829242
-0.0001206032772
-0.001481412235
-0.0002270340726
-0.001254380513
-0.0003162148361
-0.000983294019
-0.0003764640532
-0.0006961412018
-0.0003972090535
-0.0004257313853
-0.0003714965491
-0.0002049933864
-0.0002989515567
-5.981246892e-05
-0.00018925524
-4.922542093e-07
-6.708040303e-05
2.141726856e-05
-0.0001229343021
0.0002048553609
-0.0004149720616
0.0005279078957
-0.0008086672205
0.0007314467506
-0.001247163372
0.0008204500583
-0.001684658994
0.0008186460723
-0.002084427101
0.0007456260749
-0.002416962068
0.0006163782453
-0.002658572441
0.0004423702583
-0.00279098774
0.0002340100318
-0.002802409827
3.608086816e-06
-0.002687898722
-0.0002351143623
-0.002452958687
-0.0004619740871
-0.002114169415
-0.0006550040931
-0.001700372584
-0.00079026088
-0.001251821304
-0.0008457603365
-0.0008167441577
-0.0008065736947
-0.0004446231356
-0.000671072561
-0.0001762320893
-0.0004576462515
-3.221224356e-05
-0.0002111002243
-1.079498123e-05
-0.0001720781879
0.0003769335528
-0.0005725599509
0.0009283896555
-0.001105966051
0.001264852862
-0.001698033671
0.001412517693
-0.002290593279
0.001411205697
-0.002837249769
0.001292282579
-0.003300212001
0.001079340482
-0.003648286402
0.0007904446585
-0.003856333211
0.0004420568414
-0.003905810624
5.308549886e-05
-0.003787742616
-0.000353182352
-0.003504020392
-0.0007456962844
-0.003071268787
-0.001087755676
-0.002522628012
-0.001338901646
-0.001907994201
-0.001460394154
-0.00129090436
-0.001423663546
-0.0007407536299
-0.001221223293
-0.0003202706797
-0.0008781291886
-7.110219289e-05
-0.0004602687113
-8.189718926e-05
-0.0002170217711
0.0005939553331
-0.0007188320676
0.001430199948
-0.001385653431
0.001931674225
-0.002127119956
0.002153984224
-0.002874369356
0.002158455107
-0.003573189522
0.001991102758
-0.004178972725
0.001685123696
-0.004653577283
0.001265049222
-0.004964191382
0.0007526709421
-0.005084010269
0.0001729043901
-0.004995016615
-0.0004421759916
-0.00469118301
-0.001049529866
-0.004183513053
-0.001595425613
-0.003504385745
-0.002018028947
-0.00271044715
-0.002254332759
-0.001881575978
-0.002252534734
-0.001113232092
-0.00198956719
-0.0005008205938
-0.001490540686
-0.0001191420216
-0.000841947294
-0.0002010392201
-0.0002573663425
0.0008513216847
-0.0008513384539
0.002024172072
-0.001642294081
0.002722629859
-0.002526553301
0.00303824345
-0.00342689582
0.00305879763
-0.004283382236
0.002847589179
-0.005046207318
0.002447948782
-0.00567101006
0.001889851968
-0.006116743103
0.001198403991
-0.006345973611
0.0004021349078
-0.006327835406
-0.0004603141801
-0.006042468945
-0.001334896306
-0.005488317345
-0.002149577194
-0.00468997673
-0.002816369554
-0.003705723572
-0.003238585921
-0.002631180609
-0.003327077706
-0.001594225313
-0.003026522489
-0.000736386477
-0.002348379521
-0.0001821204667
-0.001396213311
-0.0003831596856
-0.0002911837087
0.00114250539
-0.0009641238286
0.002697112211
-0.001864161017
0.003622667061
-0.002878141475
0.004052223921
-0.003923459043
0.004104115207
-0.004936994819
0.003861124957
-0.005865881065
0.003376835026
-0.006660993592
0.002684964491
-0.007273430909
0.001810841308
-0.007653964493
0.0007826685015
-0.007755797181
-0.0003584814735
-0.007539780524
-0.00155091294
-0.00698402042
-0.002705337276
-0.00609580833
-0.003704581629
-0.004925699438
-0.004408694804
-0.003579476484
-0.004673300654
-0.002220386134
-0.004385612833
-0.00105084467
-0.003517920977
-0.000268467522
-0.002178590457
-0.0006516271995
-0.0003159651845
0.001458470572
-0.00104873627
0.003429883307
-0.002034529192
0.004608459994
-0.003154899922
0.005172594665
-0.004325127948
0.005274343246
-0.005481842932
0.00501783995
-0.00657192483
0.004466916925
-0.0075441129
0.003657152556
-0.008343802702
0.002610531107
-0.008911121733
0.001349987536
-0.009182797718
-8.680547395e-05
-0.009097004711
-0.001636705925
-0.008604576919
-0.003197765044
-0.007684192673
-0.004624965852
-0.006364063251
-0.005728824206
-0.004746039572
-0.006291324316
-0.003022879795
-0.006108772595
-0.001469580091
-0.00507122067
-0.0003882442053
-0.003259926332
-0.001039871396
-0.0003291952886
0.001787665869
-0.001096441976
0.004197129996
-0.002135077597
0.005647095624
-0.003325365187
0.006362882267
-0.004583647282
0.006532625354
-0.005849368015
0.006283560695
-0.00707256881
0.005690117725
-0.008203818016
0.004788401761
-0.009187251206
0.003593964293
-0.00995688636
0.002119622688
-0.01043606221
0.000392370381
-0.01054224275
-0.001530525374
-0.01019502844
-0.003544979328
-0.009334083288
-0.005485910984
-0.007946624008
-0.007116283464
-0.006105922859
-0.008132025445
-0.004012927594
-0.008201767843
-0.002014591597
-0.007069556655
-0.0005528018144
-0.004721716103
-0.001592673204
-0.000329792703
0.002117458584
-0.001101701237
0.004969038533
-0.002151422088
0.006696816485
-0.003361075872
0.007572536064
-0.00465084284
0.007822392336
-0.005965953436
0.007598671305
-0.007263375412
0.006987539711
-0.008500561579
0.006025587931
-0.009627007195
0.004720409907
-0.01057859804
0.003071213529
-0.01127459059
0.001088362929
-0.01161814416
-0.001186971807
-0.01150162458
-0.003661498898
-0.01082052186
-0.006167013681
-0.009502997451
-0.00843380786
-0.007560605506
-0.01007441737
-0.005160870836
-0.0106015025
-0.002696114176
-0.009534313304
-0.000774149895
-0.006643680373
-0.002366823095
-0.0003199349612
0.002437393548
-0.001066686675
0.005715790255
-0.002080423678
0.0077105535
-0.00324681409
0.008738926491
-0.004492307157
0.009067885419
-0.005770872279
0.008877236442
-0.007050314923
0.008266982367
-0.008300540882
0.007275813897
-0.009484300829
0.005904169854
-0.01054996139
0.004136874086
-0.01142561952
0.001964021057
-0.01201417096
-0.000598420377
-0.01219379317
-0.003481876686
-0.01182096713
-0.006539839706
-0.01075537668
-0.009499398306
-0.008913748585
-0.01191604545
-0.006370856019
-0.01314439505
-0.003498963988
-0.01240620533
-0.001063150953
-0.0090794934
-0.003429974045
-0.0003074096496
0.002744803196
-0.001006588037
0.006414968651
-0.001938355683
0.008642321158
-0.002991900085
0.009792470906
-0.004102814763
0.01017880011
-0.005237450479
0.01001187218
-0.006378629746
0.009408161651
-0.007514085808
0.008411269973
-0.008627334049
0.007017418103
-0.009689846678
0.005199386716
-0.01065314494
0.002927319315
-0.01143757031
0.0001860049876
-0.01192945827
-0.002989988718
-0.01196499192
-0.006504306051
-0.01134373964
-0.01012065058
-0.009868967687
-0.0133908174
-0.007460113608
-0.01555324912
-0.004363833854
-0.01550248507
-0.001425535292
-0.01201779195
-0.004855509333
-0.0003089286712
0.003053731866
-0.0009555686001
0.007061608587
-0.001768492053
0.00945524462
-0.002639393368
0.01066337223
-0.003518265569
0.01105767233
-0.004389726794
0.01088333342
-0.005256723985
0.01027515887
-0.006129519849
0.009284065858
-0.007017712889
0.00790561116
-0.007923332761
0.006105006598
-0.008832219468
0.003836206028
-0.009704220566
0.00105800609
-0.01045073189
-0.002243477388
-0.01092412473
-0.006030913209
-0.01089503197
-0.01014974333
-0.01006489028
-0.01422095909
-0.008157306409
-0.01746083298
-0.005167631691
-0.01849215978
-0.001854348834
-0.0153310748
-0.006709858163
-0.0003552706291
0.003409002497
-0.0009733348788
0.007679672844
-0.00164606047
0.01012797022
-0.002268714732
0.0112860265
-0.00281684554
0.01160580315
-0.003303700157
0.01137018806
-0.003759417394
0.01073087613
-0.004220932745
0.009745581235
-0.00472615539
0.008410833827
-0.005309771424
0.006688622649
-0.005996665379
0.004523099994
-0.00679180675
0.00185314747
-0.007660593489
-0.001374690641
-0.008503036351
-0.005188470338
-0.009113183861
-0.009539595807
-0.009142512186
-0.01419163075
-0.008128403079
-0.01847494209
-0.005711157499
-0.02090940536
-0.002318284881
-0.01872394741
-0.00902814304
-0.0005003777061
0.003909380207
-0.001151298568
0.008330593719
-0.00167482481
0.01065149647
-0.001981645805
0.01159284749
-0.002095679449
0.01171983679
-0.002075743896
0.01135025251
-0.00198848633
0.01064361858
-0.001901161087
0.009658256015
-0.001878937214
0.008388609975
-0.001985981229
0.006795666681
-0.002282476843
0.00481959562
-0.002818765169
0.002389435806
-0.003622160961
-0.0005712948413
-0.004668850725
-0.004141780566
-0.005834641598
-0.008373804926
-0.006807668875
-0.01321860347
-0.007016672261
-0.01826593869
-0.005716402699
-0.02220967491
-0.002739567475
-0.02170078263
-0.01176771051
-0.0008308860662
0.00474026628
-0.001604835055
0.009104542726
-0.001950983448
0.01099764486
-0.001839388793
0.01148125283
-0.00138544256
0.01126589055
-0.0007181407943
0.01068295075
4.820318004e-05
0.009877274613
0.0008163942168
0.008890064991
0.00149535008
0.007709654126
0.001998413872
0.006292602903
0.002238507775
0.004579501728
0.002128345861
0.002499597729
0.001583151765
-2.610073587e-05
0.000545024138
-0.003103652932
-0.0009843209599
-0.006844459821
-0.002828406936
-0.01137451749
-0.004459129765
-0.01663521586
-0.004810491574
-0.02185831309
-0.002944291527
-0.02356698267
-0.01471200204
-0.00146568308
0.006205949371
-0.002379878532
0.0100187382
-0.002373448539
0.01099121487
-0.001603547432
0.01071135171
-0.0003496336059
0.01001197672
0.001163633993
0.009169683142
0.00277183257
0.008269076037
0.004349524222
0.007312373347
0.005791613844
0.006267564513
0.006998005476
0.005086211281
0.007865484557
0.003712022658
0.008282277435
0.00208280486
0.008123815405
0.0001323613028
0.007264490859
-0.002244328377
0.005585208079
-0.005165177033
0.003073869043
-0.008863178442
7.896930014e-05
-0.01364031611
-0.002445749157
-0.01933359463
-0.002601078655
-0.02341165316
-0.01731308069
-0.002365504217
0.008571453601
-0.002963809742
0.01061704374
-0.001922816378
0.009950221497
8.111148783e-05
0.008707423842
0.002534881828
0.007558206371
0.005140249163
0.006564315808
0.007719746117
0.005689579088
0.01015461357
0.004877505902
0.0123495655
0.004072612591
0.01421199465
0.003223782144
0.01564053323
0.002283484091
0.01651758289
0.001205755204
0.01669709442
-4.715021272e-05
0.01602712196
-0.001574355906
0.0143050866
-0.003443141668
0.01133282802
-0.005890919856
0.007055611521
-0.009363099595
0.002201622271
-0.01447960537
-0.001027321148
-0.02018270974
-0.01834040183
-0.002150342732
0.01072179634
-7.199464568e-05
0.008538695665
0.003741897848
0.006136329015
0.007719771272
0.004729550432
0.0115618683
0.00371610936
0.01514100672
0.002985177394
0.01839885144
0.002431734385
0.02130155023
0.001974807122
0.02381242822
0.001561734612
0.02587972952
0.00115648085
0.02743056417
0.0007326494474
0.02836472406
0.0002715953251
0.02857561423
-0.0002580403781
0.02788766281
-0.0008864044721
0.02609933953
-0.001654818383
0.02290826442
-0.002699844736
0.0179069659
-0.004361801066
0.01076690752
-0.007339546989
0.002912180097
-0.0123279823
-0.01542822173
0.01072179635
0.01926049203
0.02539682106
0.0301263715
0.03384248087
0.03682765827
0.03925939266
0.04123419979
0.0427959344
0.04395241525
0.0446850647
0.04495666003
0.04469861966
0.04381221519
0.04215739681
0.03945755208
0.03509575102
0.02775620403
0.01542822173
)
;

boundaryField
{
    movingWall
    {
        type            calculated;
        value           uniform 0;
    }
    fixedWalls
    {
        type            calculated;
        value           uniform 0;
    }
    frontAndBack
    {
        type            empty;
    }
}


// ************************************************************************* //
