/*--------------------------------*- C++ -*----------------------------------*\
  =========                 |
  \\      /  F ield         | OpenFOAM: The Open Source CFD Toolbox
   \\    /   O peration     | Website:  https://openfoam.org
    \\  /    A nd           | Version:  13
     \\/     M anipulation  |
\*---------------------------------------------------------------------------*/
FoamFile
{
    format      ascii;
    class       volVectorField;
    location    "33";
    object      U;
}
// * * * * * * * * * * * * * * * * * * * * * * * * * * * * * * * * * * * * * //

dimensions      [0 1 -1 0 0 0 0];

internalField   nonuniform List<vector> 
400
(
(1.098022801e-05 -3.784948759e-05 0)
(-0.0006661223533 0.0004130390507 -1.549638191e-23)
(-0.002185380496 0.0009203920497 0)
(-0.004047831781 0.001312778573 0)
(-0.005971862321 0.001535063277 6.843226588e-25)
(-0.007762773816 0.001569845647 4.151396578e-24)
(-0.009284533088 0.001423562034 -7.366059584e-24)
(-0.01043592718 0.001119722396 7.538168226e-24)
(-0.01113679907 0.0006960822244 -2.095983992e-25)
(-0.01132709655 0.0002030776466 -3.995548196e-24)
(-0.01097175947 -0.0003002331224 5.804565623e-24)
(-0.01007231751 -0.0007475155403 -5.930314435e-23)
(-0.008679872859 -0.001075561518 -6.553454895e-23)
(-0.00690284892 -0.001233043111 -7.785107521e-23)
(-0.004910736801 -0.001192637603 4.574084312e-24)
(-0.002927232853 -0.0009619202939 -4.138438741e-24)
(-0.0012053016 -0.000591212452 -1.999080665e-22)
(-1.907132881e-05 -0.0001698843267 0)
(0.0005181518049 0.0001720841306 1.51088466e-25)
(0.000222750745 0.0003059781548 -2.569459848e-24)
(-0.000263375009 0.0008289439632 1.384304396e-25)
(-0.00270331553 0.003383826065 1.559407195e-23)
(-0.006907275281 0.005604485834 1.552742755e-25)
(-0.01195230658 0.007008192077 -8.490452626e-25)
(-0.01713501987 0.007553761198 1.161411733e-24)
(-0.02197532057 0.00729418688 1.306136525e-23)
(-0.02611072037 0.006321884693 1.395870869e-24)
(-0.02926560271 0.004754187516 -7.28970471e-24)
(-0.03122668373 0.002737150071 1.015627685e-23)
(-0.03184196404 0.0004524077442 4.51103664e-24)
(-0.03102757186 -0.001884139475 -6.319921358e-24)
(-0.02879312967 -0.00402302159 2.961541216e-24)
(-0.02527135508 -0.005708344888 3.895928146e-23)
(-0.02073192935 -0.00670739971 -1.955015499e-24)
(-0.01558961558 -0.006854131971 3.754983201e-24)
(-0.01038513028 -0.006097459419 -9.742692706e-23)
(-0.005730273169 -0.00454618567 9.639381431e-23)
(-0.00223336991 -0.00250742156 -3.963864324e-25)
(-0.0001817775476 -0.0005023764249 4.063833794e-25)
(8.343517507e-05 0.00060992301 0)
(-0.0004188256182 0.002935066265 -2.91172238e-25)
(-0.004647874791 0.008803991453 1.703789422e-23)
(-0.01137194799 0.01324039392 -8.267545132e-24)
(-0.01932726339 0.01579200879 -2.072857911e-25)
(-0.02747407321 0.01652996875 2.036366662e-25)
(-0.03511772964 0.01564438846 7.067200945e-27)
(-0.04171337797 0.0133599537 -1.228128976e-24)
(-0.04683563972 0.009919756931 -4.556246468e-25)
(-0.05014980906 0.005602428557 -1.063465853e-23)
(-0.05141224033 0.0007444252722 0)
(-0.05047785918 -0.004241767635 0)
(-0.04733699809 -0.008887167957 2.671420661e-23)
(-0.0421592257 -0.01268174658 2.81340556e-23)
(-0.03531433377 -0.01513602804 -1.646417569e-24)
(-0.02738993524 -0.01586187412 4.846723327e-23)
(-0.01917004332 -0.01467332534 9.420944271e-23)
(-0.01156090085 -0.01169359448 3.977397968e-23)
(-0.005465410872 -0.007450740921 4.147344076e-25)
(-0.001451100232 -0.002936046564 1.070965179e-25)
(-9.072699984e-05 0.0002258730712 0)
(-0.0005024636445 0.0060453344 -4.250567638e-23)
(-0.006402732236 0.01637071823 -1.694011293e-23)
(-0.01553500037 0.02355928527 8.194404801e-24)
(-0.02627907709 0.02744157099 0)
(-0.03728740409 0.02832096846 0)
(-0.04769029291 0.02658767879 0)
(-0.05679653334 0.02263116725 -4.492365591e-26)
(-0.0640537331 0.01683606997 -2.132445964e-24)
(-0.0690107031 0.009622175772 0)
(-0.07130816785 0.001491057368 1.636408813e-24)
(-0.07070843046 -0.006936482511 2.803367675e-25)
(-0.06713029989 -0.01493015579 -2.81121703e-25)
(-0.06069897573 -0.02166724167 0)
(-0.05180744114 -0.02631601514 4.134094098e-23)
(-0.04114986951 -0.02816066882 -4.682410745e-23)
(-0.02971967114 -0.02677368956 -2.762830181e-23)
(-0.01873714942 -0.02221528299 -3.962570151e-23)
(-0.009488021023 -0.01521921153 7.795901131e-25)
(-0.002976878332 -0.007298194293 9.78852805e-23)
(-0.0002318793166 -0.0008661717474 0)
(-0.0005316128328 0.01009499456 4.271238895e-23)
(-0.007983580078 0.02595214164 4.782601571e-25)
(-0.01939684157 0.03642875438 -4.673368941e-25)
(-0.03282376771 0.0418551255 0)
(-0.04664680968 0.04289477325 7.780373678e-25)
(-0.05985219507 0.04020067171 -7.672495707e-25)
(-0.0716327947 0.03434736407 3.671491611e-23)
(-0.08132738076 0.02585660789 1.847368563e-23)
(-0.08836587206 0.01527297207 6.236648003e-24)
(-0.09225455585 0.003246157504 -1.638315248e-24)
(-0.09260366351 -0.009407801557 0)
(-0.08917543143 -0.02167473233 4.371853324e-25)
(-0.08195968412 -0.03236739082 1.009425685e-23)
(-0.07126876462 -0.04021243628 -4.350178065e-23)
(-0.05782011888 -0.04402040007 1.933428345e-24)
(-0.04278578097 -0.0429482391 4.219005553e-23)
(-0.02775447339 -0.03683342913 -3.844538499e-25)
(-0.01455060833 -0.02652718675 0)
(-0.004859457709 -0.01408453775 5.436536674e-23)
(-0.0003641476653 -0.00284695533 -2.564889612e-22)
(-0.0005272205109 0.01499924717 9.839789192e-23)
(-0.009377909856 0.0373901493 -4.906424842e-25)
(-0.02288178928 0.05170213027 0)
(-0.03883037023 0.05894172127 0)
(-0.05538647642 0.06025563936 -8.731271934e-23)
(-0.07142865176 0.05661891732 -8.498275359e-23)
(-0.08606640709 0.04880161572 -4.066668462e-23)
(-0.09855071126 0.03743975954 -1.503965476e-23)
(-0.1081943738 0.02315982302 -5.366944551e-24)
(-0.1143443129 0.006709691942 -8.173929664e-24)
(-0.1164044643 -0.01093288145 6.599999091e-24)
(-0.1138935929 -0.02848938699 8.82466055e-24)
(-0.1065485657 -0.0443703818 -1.892311057e-23)
(-0.09446792752 -0.05675324741 4.599164628e-24)
(-0.07826847864 -0.06378289605 0)
(-0.05922888809 -0.06393487273 -1.573780758e-23)
(-0.03933977615 -0.05653809884 -2.400930878e-26)
(-0.0211418655 -0.04235805014 0)
(-0.007318694956 -0.02398227627 -1.520460496e-22)
(-0.0005216156207 -0.005925543675 6.055891234e-22)
(-0.0004990814384 0.02064570576 -9.772757729e-23)
(-0.01052949348 0.05045428616 2.831808499e-22)
(-0.02582953489 0.06912498971 1.526774918e-22)
(-0.0440213164 0.07849244005 3.619013332e-24)
(-0.06310729791 0.08029462945 -7.319318421e-23)
(-0.08190393214 0.07588031128 9.042678419e-23)
(-0.09947749727 0.06621681509 -3.589952999e-24)
(-0.1150225825 0.05201689102 -1.729038489e-24)
(-0.1277517527 0.03392356095 2.523963597e-24)
(-0.1368470905 0.01270234437 7.381629488e-24)
(-0.141470884 -0.01058777626 -6.499810184e-24)
(-0.1408246573 -0.03446016664 -9.785883168e-24)
(-0.134274449 -0.05692761664 -3.26175996e-23)
(-0.1215448944 -0.07553304711 -3.660155458e-23)
(-0.1029671589 -0.08754248649 5.643251312e-25)
(-0.07976361792 -0.09039198517 0)
(-0.05426677031 -0.08244504516 0)
(-0.02987157943 -0.06397730451 -2.905776213e-24)
(-0.01066284059 -0.03798791468 2.970219046e-24)
(-0.0007350926274 -0.0105008887 1.027871657e-22)
(-0.000447915945 0.02687246252 0)
(-0.01134921728 0.06480745909 2.00197448e-22)
(-0.0280159603 0.08829601858 8.962063747e-23)
(-0.04799851177 0.1001233274 0)
(-0.06920593287 0.102707494 1.569799453e-22)
(-0.09044362143 0.09781564521 0)
(-0.1107830377 0.08661092004 -1.428343224e-22)
(-0.1294092306 0.06983943081 6.515295889e-24)
(-0.1454770075 0.04808229043 0)
(-0.1580350199 0.02201756631 0)
(-0.1660131837 -0.007334388814 -1.374343723e-24)
(-0.1682669985 -0.03838831024 -9.316105292e-25)
(-0.1637063221 -0.06883964206 1.491892222e-22)
(-0.1515207432 -0.09558262066 -4.704644305e-23)
(-0.1315133422 -0.1148297199 -2.560699905e-24)
(-0.1045595182 -0.1225701996 1.534454364e-24)
(-0.07309343624 -0.1155516741 -1.558659281e-24)
(-0.04135017891 -0.0928310653 0)
(-0.01525228904 -0.05740762585 3.203664841e-24)
(-0.001044307828 -0.01714713206 -1.01287613e-21)
(-0.0003744665805 0.033462989 0)
(-0.0117500494 0.07998905427 -1.128204742e-22)
(-0.02920705058 0.1086389184 -6.190976572e-22)
(-0.05031740077 0.1232232081 -3.755220587e-22)
(-0.07296310379 0.1269095193 0)
(-0.09598951171 0.121925403 4.11936801e-22)
(-0.1185272415 0.109634738 1.260885139e-22)
(-0.1398145223 0.09078237426 -5.581697821e-24)
(-0.1590220266 0.06581389286 5.554071417e-24)
(-0.175145967 0.03520881865 0)
(-0.1869558637 -0.0001966948833 2.91207357e-23)
(-0.1930171321 -0.03889745064 4.695700104e-24)
(-0.1917808639 -0.07843875852 -1.07676363e-22)
(-0.1817873252 -0.1151863856 8.003773303e-23)
(-0.1620569383 -0.1442597798 -2.419655894e-22)
(-0.1327061129 -0.1598546957 0)
(-0.09577881698 -0.1563111374 0)
(-0.05601629123 -0.1302979904 0)
(-0.02147857533 -0.08381127998 0)
(-0.001500383109 -0.02665514218 5.571927249e-22)
(-0.0002873908276 0.04016071657 0)
(-0.01169359074 0.095435971 -3.492929751e-22)
(-0.02924436637 0.1294071716 8.932623159e-22)
(-0.05060944224 0.1469297091 3.61709565e-22)
(-0.07370078107 0.151974667 0)
(-0.09745145223 0.1472756212 -3.862471224e-22)
(-0.1211069133 0.1344190576 -3.174375097e-23)
(-0.1440324 0.1141392397 3.333058297e-22)
(-0.1655142397 0.08670002266 1.769450953e-22)
(-0.1846247656 0.05229124039 -4.060100516e-23)
(-0.2001324936 0.01141721386 1.656819414e-23)
(-0.2104621571 -0.03471414754 -8.265103334e-24)
(-0.2137207667 -0.08376550624 3.371809704e-22)
(-0.2078214659 -0.1318754766 0)
(-0.1908237739 -0.1732754365 2.420824877e-22)
(-0.1616335024 -0.2002591558 5.774492781e-24)
(-0.1211662114 -0.2040119972 -5.860607552e-24)
(-0.07384985965 -0.1772118525 1.548351837e-22)
(-0.0297178511 -0.1188641404 -5.435164779e-24)
(-0.002179543423 -0.04005395743 0)
(-0.0002117213704 0.04671633805 0)
(-0.01125001216 0.1105496644 0)
(-0.02815624327 0.1497353025 -5.022670786e-22)
(-0.04874478648 0.1701515448 -1.880970195e-23)
(-0.07100085347 0.1766255069 2.038350572e-23)
(-0.09399449619 0.1724524702 -2.014283401e-23)
(-0.1171434069 0.1594869575 -2.316854958e-23)
(-0.1400179252 0.1384804142 -3.029780982e-22)
(-0.1621328635 0.1095160276 6.698608795e-23)
(-0.182795879 0.07245187504 4.513119115e-23)
(-0.2009835319 0.02734933967 -4.577661374e-23)
(-0.2152270024 -0.02508688577 0)
(-0.2235561952 -0.08298338753 -7.839452901e-23)
(-0.2234631894 -0.1427255792 0)
(-0.2120679077 -0.1981819134 -3.739511938e-22)
(-0.1867434156 -0.2400771834 5.244857243e-22)
(-0.1464437919 -0.2560771576 0)
(-0.09394564681 -0.2331207904 -1.493900899e-22)
(-0.04021999385 -0.1639612555 1.937453991e-22)
(-0.003201098431 -0.05861059206 -3.411433759e-22)
(-0.0002015427863 0.05297579178 0)
(-0.01067262725 0.1248170946 9.182774634e-22)
(-0.02628448217 0.1687422637 -2.44065727e-23)
(-0.04501109844 0.1916453009 9.193246127e-22)
(-0.06494599876 0.1992918999 -2.512058566e-23)
(-0.08536631214 0.1956102538 2.838815757e-23)
(-0.1059305952 0.1827885471 -2.812902077e-23)
(-0.1264924535 0.1616582616 -1.660903308e-23)
(-0.1468997245 0.1321761907 -5.260184171e-22)
(-0.1668458603 0.09389647487 -8.906553995e-24)
(-0.1857303501 0.04640581419 9.660120007e-24)
(-0.2024782167 -0.01023776037 3.313055831e-22)
(-0.2154155055 -0.07499808684 -5.820693418e-22)
(-0.2220210065 -0.1450310439 0)
(-0.2188032317 -0.214675903 8.887228969e-22)
(-0.2016257581 -0.2740014697 -4.940795737e-22)
(-0.1668639113 -0.3075810184 -1.572193497e-23)
(-0.1140219946 -0.2953810271 0)
(-0.05288480837 -0.2195801356 -1.890089305e-22)
(-0.004749186409 -0.08377273185 3.360493192e-22)
(-0.0003642007525 0.05902312532 1.550995867e-23)
(-0.01049575487 0.1379880184 -8.764106703e-22)
(-0.02441392714 0.1856802292 -1.157049468e-21)
(-0.04026729129 0.2101382748 -8.628900696e-22)
(-0.05630735631 0.2182346977 0)
(-0.07214863732 0.2146188606 3.513776912e-23)
(-0.08779229857 0.2018790698 -7.294809651e-23)
(-0.1034563714 0.1810004827 5.867841441e-23)
(-0.1193984886 0.1518996944 3.021343964e-22)
(-0.1357932633 0.113915072 -1.12818836e-23)
(-0.1526083453 0.06621430268 0)
(-0.1694522511 0.008177286311 -3.603905595e-22)
(-0.185276168 -0.06015977191 7.515623761e-22)
(-0.1980449485 -0.13727458 8.831654559e-22)
(-0.2043547048 -0.2189260546 -5.296580026e-22)
(-0.1990978158 -0.2959711453 5.162643694e-22)
(-0.176060562 -0.351407104 1.078203982e-23)
(-0.1300890706 -0.3584149262 -1.095518558e-23)
(-0.06688802915 -0.2843275278 -8.21625945e-23)
(-0.00708331863 -0.1169963886 0)
(-0.000909580105 0.06540037359 -1.911472328e-23)
(-0.01167593852 0.1502815295 -1.326956438e-21)
(-0.02388886663 0.200065798 1.094228431e-21)
(-0.03601347467 0.2244215189 6.734882356e-22)
(-0.04657317989 0.2316586518 6.014589882e-22)
(-0.05577049638 0.227239222 6.643912153e-22)
(-0.06411258453 0.2141773783 -4.458648926e-23)
(-0.07227575633 0.1936493739 -3.461317157e-22)
(-0.08096987934 0.1656028128 2.152150877e-22)
(-0.09087207965 0.1292707575 0)
(-0.1025549047 0.08353087986 0)
(-0.1163623738 0.02720018613 2.655385359e-22)
(-0.1321591076 -0.04061996666 8.194334498e-23)
(-0.148925371 -0.1200127294 -2.821602031e-22)
(-0.164128548 -0.2089299624 -5.411242914e-23)
(-0.1727878556 -0.3006991379 1.301950895e-22)
(-0.1670311931 -0.3793327889 -3.400457229e-22)
(-0.1365292749 -0.4136450712 -1.594298509e-23)
(-0.08018250803 -0.3538325087 8.205030841e-23)
(-0.01050762256 -0.1594130029 -6.032250834e-22)
(-0.002260500966 0.07348880634 0)
(-0.01580358186 0.1626520921 2.145860696e-21)
(-0.02665048204 0.2117903468 0)
(-0.03422348427 0.2333945801 -1.351798971e-21)
(-0.03759410225 0.2377765377 6.184060217e-23)
(-0.03799699427 0.231255228 -6.193052573e-22)
(-0.03668281941 0.2171898098 -4.75625619e-22)
(-0.03489053716 0.196893399 8.301207902e-22)
(-0.03378856121 0.1703342282 -1.885687887e-22)
(-0.03449894943 0.1367221335 0)
(-0.03811591076 0.09479679053 0)
(-0.04565010242 0.04304293897 2.410619762e-23)
(-0.05790821213 -0.02013772973 -6.007172852e-22)
(-0.07514614149 -0.0962064183 -4.309547206e-22)
(-0.09645188786 -0.1855555356 4.637841273e-22)
(-0.1183463754 -0.2853566966 -6.488687963e-22)
(-0.1332716224 -0.3838385689 9.119896052e-23)
(-0.1265351484 -0.4504357818 2.937810984e-23)
(-0.08899155796 -0.4198535493 5.660486103e-22)
(-0.01526918029 -0.2111719242 6.020883405e-22)
(-0.005180901696 0.08598044508 0)
(-0.025255533 0.176629064 1.465580214e-22)
(-0.03483413961 0.2205960646 -4.917116236e-23)
(-0.03640023453 0.2354858238 7.642882794e-22)
(-0.03018495963 0.2343405625 -7.005333231e-22)
(-0.01916595136 0.2241602899 4.746452719e-23)
(-0.005615325943 0.2083525122 -1.018604669e-22)
(0.00856941983 0.188124069 -3.389870008e-22)
(0.0217986675 0.1633911207 2.062812837e-22)
(0.03262762244 0.1333242971 0)
(0.03958440023 0.09664090934 0)
(0.04116995823 0.0517406269 -2.902656342e-22)
(0.03578467634 -0.003255329692 0)
(0.02198169947 -0.07058354118 -5.51216616e-22)
(-0.001264976322 -0.1525734895 -1.492366629e-23)
(-0.03310480851 -0.25059493 2.559714773e-23)
(-0.06909244585 -0.3599340985 2.203099308e-22)
(-0.09227832744 -0.4575424007 4.788356558e-24)
(-0.08718092254 -0.4698128831 -5.789457375e-22)
(-0.02103127392 -0.2698971916 0)
(-0.01111631659 0.1085974961 0)
(-0.04248903971 0.1947151415 -8.848436048e-22)
(-0.04795534156 0.2258194967 -5.411015051e-22)
(-0.0391954467 0.2282134819 4.543792533e-22)
(-0.01877842375 0.2182327343 -1.709985414e-24)
(0.007664164625 0.2028219636 -4.561022682e-23)
(0.03667976465 0.1847619227 5.69664883e-22)
(0.06582980475 0.1647117895 -2.76687639e-23)
(0.09327112411 0.1423128112 -2.06977168e-22)
(0.1173889802 0.1166275107 3.142199538e-23)
(0.1365459981 0.08641147447 -3.425903316e-23)
(0.1489667698 0.05017673813 -3.690580634e-23)
(0.1525274379 0.006159219954 3.20562167e-22)
(0.1449365807 -0.04796121916 6.11958277e-22)
(0.1235158733 -0.1153052469 -5.101148596e-22)
(0.08633524701 -0.2004195301 -1.616038662e-22)
(0.03199081649 -0.306780632 1.531327349e-22)
(-0.0236212862 -0.423983687 7.293678784e-23)
(-0.06492415273 -0.4871612475 1.91329539e-21)
(-0.02509972007 -0.3291544499 2.954995737e-21)
(-0.02004680386 0.1460727473 -4.39019384e-23)
(-0.06416407199 0.2112955812 4.417366508e-23)
(-0.05070233666 0.2177300243 1.000184275e-21)
(-0.01934103171 0.2014679585 -8.270480744e-24)
(0.02414456205 0.1809075703 0)
(0.07154110642 0.1606932886 4.363695713e-23)
(0.1190702058 0.1416495122 -2.273838483e-22)
(0.1644765853 0.1233181587 -9.027903456e-23)
(0.2062249629 0.1048117221 3.680714217e-23)
(0.2429641523 0.08507140918 -1.701647906e-23)
(0.2732206175 0.06296149807 3.429956607e-23)
(0.2952534853 0.03726296827 -6.59265459e-23)
(0.3066969965 0.006535102025 -9.303878074e-23)
(0.3049737386 -0.0308776677 1.517036679e-22)
(0.2863935493 -0.07786288238 0)
(0.247056748 -0.139930018 1.505589278e-22)
(0.1810921745 -0.2266299665 2.560016182e-22)
(0.09604446577 -0.3443894839 0)
(-0.006697634628 -0.4552210101 -3.675641033e-21)
(-0.01922408507 -0.377753748 -2.892625071e-21)
(-0.02591951108 0.2276828872 -9.514194964e-22)
(-0.03998324257 0.2238216578 -1.388972438e-22)
(0.03656136549 0.1810585314 -2.335571172e-22)
(0.1090502855 0.145105895 -1.193736677e-22)
(0.1817190797 0.1172445291 -4.295801347e-23)
(0.2490090116 0.09627905466 9.783106406e-23)
(0.3100335893 0.08002508563 -1.408582011e-22)
(0.3646208383 0.06656814089 1.297167405e-22)
(0.412625147 0.05449178419 -8.620073493e-23)
(0.4536249273 0.04270895237 1.132189173e-25)
(0.4867877758 0.0303229939 1.527735123e-23)
(0.510745051 0.01652903274 7.997172067e-23)
(0.5236596749 0.0005365294756 -1.811116208e-22)
(0.5231797472 -0.01863371774 -1.617138806e-22)
(0.5052323019 -0.04286477761 -4.262905393e-23)
(0.4658714798 -0.07633230431 0)
(0.3952696291 -0.128608936 -1.846489542e-22)
(0.2916070891 -0.2208468091 8.148775654e-22)
(0.1197455011 -0.3525016895 1.631603581e-21)
(0.02670547022 -0.3775497964 2.172656902e-21)
(0.2142894492 0.1347447229 9.864978842e-22)
(0.2776311257 0.09870503836 0)
(0.431659237 0.05810414959 -2.594310873e-22)
(0.5304749381 0.03846264904 -1.741656899e-22)
(0.6016965694 0.02623418932 0)
(0.6571198788 0.01831923245 -6.009043512e-23)
(0.7015213323 0.01313600651 6.377951873e-23)
(0.7376042138 0.009542125272 -1.800143705e-23)
(0.7669368011 0.006804463727 2.885954877e-23)
(0.7902106279 0.0044647452 2.315020098e-23)
(0.8074554643 0.002221322088 0)
(0.8182621055 -0.0001500721633 -2.873020033e-23)
(0.82164995 -0.002723845317 0)
(0.816239407 -0.005712666402 2.738126714e-23)
(0.7991333092 -0.009611381495 1.421668414e-23)
(0.7679986336 -0.01500255069 -5.799427085e-23)
(0.7106555765 -0.02502520013 -2.535668043e-22)
(0.6235183986 -0.04204285478 -6.918111321e-22)
(0.4230091018 -0.09182968154 0)
(0.2705674687 -0.1524021844 -2.119484742e-21)
)
;

boundaryField
{
    movingWall
    {
        type            fixedValue;
        value           uniform (1 0 0);
    }
    fixedWalls
    {
        type            fixedValue;
        value           uniform (0 0 0);
    }
    frontAndBack
    {
        type            empty;
    }
}


// ************************************************************************* //
