/*--------------------------------*- C++ -*----------------------------------*\
  =========                 |
  \\      /  F ield         | OpenFOAM: The Open Source CFD Toolbox
   \\    /   O peration     | Website:  https://openfoam.org
    \\  /    A nd           | Version:  13
     \\/     M anipulation  |
\*---------------------------------------------------------------------------*/
FoamFile
{
    format      ascii;
    class       volVectorField;
    location    "33";
    object      U_0;
}
// * * * * * * * * * * * * * * * * * * * * * * * * * * * * * * * * * * * * * //

dimensions      [0 1 -1 0 0 0 0];

internalField   nonuniform List<vector> 
400
(
(1.098009153e-05 -3.784956812e-05 0)
(-0.0006661225084 0.0004130390503 -1.54960647e-23)
(-0.002185380515 0.0009203920858 0)
(-0.004047831652 0.001312778534 0)
(-0.005971862091 0.001535063125 6.842973315e-25)
(-0.007762773713 0.001569845515 4.151257422e-24)
(-0.009284533255 0.001423562107 -7.365977335e-24)
(-0.01043592748 0.001119722693 7.538364599e-24)
(-0.0111367992 0.0006960825545 -2.095875025e-25)
(-0.01132709634 0.0002030777853 -3.995437057e-24)
(-0.01097175905 -0.0003002332685 5.804503044e-24)
(-0.01007231712 -0.0007475158327 -5.930392751e-23)
(-0.008679872675 -0.001075561753 -6.553527539e-23)
(-0.006902848962 -0.001233043165 -7.785152448e-23)
(-0.004910736992 -0.001192637497 4.574068522e-24)
(-0.002927233156 -0.0009619201414 -4.138405197e-24)
(-0.001205302023 -0.0005912123544 -1.999066926e-22)
(-1.907175263e-05 -0.0001698842985 0)
(0.0005181515906 0.00017208414 1.510925728e-25)
(0.0002227506669 0.000305978282 -2.570052034e-24)
(-0.0002633750675 0.0008289438405 1.384333663e-25)
(-0.002703315553 0.003383826033 1.559373338e-23)
(-0.006907275239 0.005604485872 1.552715161e-25)
(-0.0119523065 0.007008192065 -8.490932234e-25)
(-0.01713501968 0.007553760995 1.161459462e-24)
(-0.02197532029 0.007294186565 1.306053738e-23)
(-0.02611072012 0.006321884529 1.396482892e-24)
(-0.02926560262 0.004754187679 -7.28984372e-24)
(-0.03122668375 0.002737150441 1.015669069e-23)
(-0.03184196404 0.000452407982 4.510903058e-24)
(-0.0310275717 -0.001884139504 -6.31984508e-24)
(-0.02879312931 -0.004023021888 2.962062387e-24)
(-0.02527135466 -0.005708345236 3.896017893e-23)
(-0.02073192904 -0.006707399876 -1.955038324e-24)
(-0.01558961551 -0.006854131872 3.75501912e-24)
(-0.01038513053 -0.006097459146 -9.74275696e-23)
(-0.00573027369 -0.004546185366 9.639315931e-23)
(-0.002233370468 -0.002507421278 -3.963809554e-25)
(-0.000181777761 -0.0005023761515 4.063777062e-25)
(8.343514834e-05 0.0006099233126 0)
(-0.000418825582 0.002935066194 -2.911745611e-25)
(-0.004647874705 0.008803991378 1.703787425e-23)
(-0.01137194791 0.01324039384 -8.266196194e-24)
(-0.01932726336 0.01579200876 -2.072998404e-25)
(-0.02747407309 0.01652996866 2.036504139e-25)
(-0.0351177293 0.01564438822 7.038855924e-27)
(-0.04171337744 0.01335995338 -1.228723165e-24)
(-0.04683563925 0.009919756729 -4.556324858e-25)
(-0.05014980886 0.005602428595 -1.063508682e-23)
(-0.0514122403 0.0007444254774 0)
(-0.0504778591 -0.004241767452 0)
(-0.04733699785 -0.008887167933 2.671381408e-23)
(-0.0421592252 -0.01268174668 2.813394389e-23)
(-0.03531433316 -0.01513602811 -1.64641981e-24)
(-0.02738993481 -0.01586187402 4.846734518e-23)
(-0.01917004331 -0.01467332504 9.421007352e-23)
(-0.01156090125 -0.01169359406 3.977466606e-23)
(-0.005465411404 -0.007450740448 4.147382139e-25)
(-0.001451100583 -0.002936046067 1.070982363e-25)
(-9.072714187e-05 0.0002258734389 0)
(-0.0005024636124 0.006045334363 -4.250553335e-23)
(-0.00640273212 0.01637071805 -1.694006425e-23)
(-0.01553500019 0.02355928497 8.193038251e-24)
(-0.0262790769 0.02744157077 0)
(-0.03728740392 0.02832096838 0)
(-0.04769029264 0.02658767874 0)
(-0.05679653287 0.02263116709 -4.489682731e-26)
(-0.06405373247 0.01683606972 -2.132778341e-24)
(-0.06901070252 0.009622175584 0)
(-0.07130816749 0.00149105741 1.636444701e-24)
(-0.07070843028 -0.006936482342 2.803407233e-25)
(-0.06713029965 -0.01493015557 -2.811256717e-25)
(-0.06069897525 -0.02166724149 0)
(-0.05180744044 -0.02631601502 4.134074357e-23)
(-0.04114986883 -0.02816066872 -4.682421715e-23)
(-0.02971967082 -0.02677368939 -2.762842092e-23)
(-0.01873714957 -0.02221528274 -3.962639299e-23)
(-0.009488021404 -0.01521921121 7.795966173e-25)
(-0.002976878645 -0.00729819394 9.788525364e-23)
(-0.000231879487 -0.0008661714426 0)
(-0.0005316128819 0.01009499457 4.271223979e-23)
(-0.007983580059 0.02595214142 4.782837215e-25)
(-0.01939684138 0.03642875396 -4.673598007e-25)
(-0.03282376736 0.041855125 0)
(-0.04664680928 0.04289477287 7.780125296e-25)
(-0.05985219466 0.04020067155 -7.672251411e-25)
(-0.07163279423 0.03434736403 3.671454729e-23)
(-0.08132738019 0.02585660785 1.847403494e-23)
(-0.08836587145 0.01527297199 6.236741011e-24)
(-0.09225455531 0.003246157436 -1.638351184e-24)
(-0.09260366309 -0.009407801507 0)
(-0.08917543101 -0.02167473215 4.371905223e-25)
(-0.08195968355 -0.03236739059 1.009435875e-23)
(-0.07126876388 -0.04021243608 -4.350158353e-23)
(-0.05782011814 -0.04402039999 1.933423143e-24)
(-0.04278578049 -0.04294823911 4.219013708e-23)
(-0.0277544733 -0.03683342915 -3.84456171e-25)
(-0.01455060846 -0.02652718671 0)
(-0.004859457856 -0.01408453765 5.436529423e-23)
(-0.0003641477507 -0.002846955251 -2.56488876e-22)
(-0.0005272205818 0.01499924711 9.839677495e-23)
(-0.009377909912 0.03739014904 -4.906337181e-25)
(-0.02288178918 0.05170212986 0)
(-0.0388303699 0.05894172069 0)
(-0.05538647589 0.06025563874 -8.731303421e-23)
(-0.07142865113 0.05661891684 -8.498269104e-23)
(-0.08606640646 0.04880161549 -4.066629114e-23)
(-0.09855071065 0.03743975951 -1.503971313e-23)
(-0.1081943732 0.0231598231 -5.367030964e-24)
(-0.1143443124 0.006709692052 -8.173941839e-24)
(-0.1164044639 -0.01093288129 6.600016435e-24)
(-0.1138935924 -0.02848938677 8.824669631e-24)
(-0.106548565 -0.04437038155 -1.892318162e-23)
(-0.09446792677 -0.0567532472 4.599079193e-24)
(-0.07826847791 -0.06378289595 0)
(-0.05922888756 -0.06393487276 -1.573777399e-23)
(-0.03933977589 -0.05653809893 -2.401014142e-26)
(-0.0211418654 -0.04235805021 0)
(-0.007318694939 -0.02398227634 -1.52045947e-22)
(-0.0005216156185 -0.005925543771 6.055889464e-22)
(-0.0004990814679 0.02064570552 -9.772647112e-23)
(-0.0105294935 0.05045428576 2.831798722e-22)
(-0.02582953482 0.06912498924 1.526770405e-22)
(-0.04402131617 0.07849243949 3.619024201e-24)
(-0.06310729743 0.08029462879 -7.319312368e-23)
(-0.08190393145 0.07588031063 9.042670753e-23)
(-0.09947749649 0.0662168146 -3.589954955e-24)
(-0.1150225817 0.05201689079 -1.729033155e-24)
(-0.127751752 0.03392356099 2.52395673e-24)
(-0.13684709 0.01270234461 7.381643243e-24)
(-0.1414708836 -0.0105877759 -6.499827046e-24)
(-0.1408246568 -0.03446016621 -9.785894084e-24)
(-0.1342744484 -0.05692761621 -3.261765748e-23)
(-0.1215448937 -0.07553304674 -3.660146745e-23)
(-0.1029671582 -0.08754248622 5.643235759e-25)
(-0.07976361737 -0.09039198501 0)
(-0.05426676995 -0.08244504507 0)
(-0.0298715792 -0.06397730446 -2.905775946e-24)
(-0.01066284048 -0.03798791471 2.970218776e-24)
(-0.000735092586 -0.0105008888 1.027871853e-22)
(-0.0004479159301 0.02687246219 0)
(-0.01134921721 0.06480745854 2.001985491e-22)
(-0.02801596019 0.08829601791 8.96208e-23)
(-0.04799851159 0.1001233268 0)
(-0.06920593252 0.1027074933 1.569801892e-22)
(-0.09044362085 0.09781564453 0)
(-0.1107830369 0.08661091943 -1.428344158e-22)
(-0.1294092298 0.0698394304 6.515299162e-24)
(-0.1454770067 0.04808229032 0)
(-0.1580350193 0.02201756652 0)
(-0.1660131833 -0.007334388342 -1.374343067e-24)
(-0.1682669981 -0.0383883096 -9.316115796e-25)
(-0.1637063217 -0.06883964136 1.491892461e-22)
(-0.1515207427 -0.09558261999 -4.704645059e-23)
(-0.1315133416 -0.1148297193 -2.560700329e-24)
(-0.1045595176 -0.1225701991 1.534453198e-24)
(-0.07309343584 -0.1155516737 -1.558658097e-24)
(-0.04135017864 -0.092831065 0)
(-0.0152522889 -0.05740762571 3.203664378e-24)
(-0.001044307788 -0.01714713207 -1.012875985e-21)
(-0.0003744665617 0.03346298875 0)
(-0.01175004933 0.07998905366 -1.128203452e-22)
(-0.02920705048 0.1086389176 -6.190974264e-22)
(-0.05031740061 0.1232232073 -3.755218883e-22)
(-0.07296310354 0.1269095185 0)
(-0.09598951129 0.1219254023 4.119366852e-22)
(-0.1185272409 0.1096347373 1.260886029e-22)
(-0.1398145216 0.09078237376 -5.581698915e-24)
(-0.1590220258 0.06581389261 5.554072504e-24)
(-0.1751459664 0.03520881873 0)
(-0.1869558633 -0.0001966944616 2.912072499e-23)
(-0.1930171318 -0.03889744995 4.695698213e-24)
(-0.1917808636 -0.07843875766 -1.076763583e-22)
(-0.1817873248 -0.1151863847 8.00377409e-23)
(-0.1620569379 -0.144259779 -2.419655535e-22)
(-0.1327061124 -0.1598546949 0)
(-0.09577881661 -0.1563111367 0)
(-0.05601629098 -0.1302979898 0)
(-0.0214785752 -0.08381127966 0)
(-0.001500383085 -0.02665514208 5.57192653e-22)
(-0.0002873908406 0.0401607164 0)
(-0.01169359076 0.09543597039 -3.492932337e-22)
(-0.02924436636 0.1294071707 8.93262503e-22)
(-0.05060944215 0.1469297081 3.617093917e-22)
(-0.07370078092 0.1519746661 0)
(-0.09745145197 0.1472756203 -3.862470091e-22)
(-0.1211069129 0.1344190569 -3.174374718e-23)
(-0.1440323994 0.1141392391 3.333058309e-22)
(-0.1655142391 0.08670002232 1.769451043e-22)
(-0.184624765 0.05229124033 -4.060100478e-23)
(-0.2001324932 0.01141721412 1.65682001e-23)
(-0.2104621568 -0.03471414697 -8.265100705e-24)
(-0.2137207665 -0.08376550544 3.371808945e-22)
(-0.2078214657 -0.1318754757 0)
(-0.1908237737 -0.1732754356 2.420824518e-22)
(-0.1616335021 -0.2002591548 5.774491019e-24)
(-0.1211662111 -0.2040119963 -5.860605766e-24)
(-0.07384985944 -0.1772118518 1.548351119e-22)
(-0.029717851 -0.1188641399 -5.435162435e-24)
(-0.002179543411 -0.04005395726 0)
(-0.0002117214092 0.04671633784 0)
(-0.01125001226 0.1105496638 0)
(-0.02815624335 0.1497353017 -5.022671982e-22)
(-0.04874478653 0.1701515439 -1.880970387e-23)
(-0.07100085349 0.176625506 2.038350447e-23)
(-0.09399449614 0.1724524694 -2.014283277e-23)
(-0.1171434068 0.1594869568 -2.316854756e-23)
(-0.1400179249 0.1384804136 -3.029781024e-22)
(-0.1621328632 0.1095160272 6.698607684e-23)
(-0.1827958787 0.07245187487 4.513119094e-23)
(-0.2009835317 0.02734933975 -4.577660897e-23)
(-0.2152270023 -0.02508688542 0)
(-0.2235561952 -0.08298338694 -7.839448025e-23)
(-0.2234631894 -0.1427255784 0)
(-0.2120679077 -0.1981819125 -3.739511417e-22)
(-0.1867434154 -0.2400771825 5.244856431e-22)
(-0.1464437917 -0.2560771567 0)
(-0.09394564667 -0.2331207896 -1.493900204e-22)
(-0.04021999378 -0.1639612549 1.937453289e-22)
(-0.003201098425 -0.05861059186 -3.411433104e-22)
(-0.0002015428192 0.0529757915 0)
(-0.01067262734 0.124817094 9.182773084e-22)
(-0.02628448229 0.1687422629 -2.440656659e-23)
(-0.04501109862 0.1916453001 9.193245024e-22)
(-0.06494599898 0.1992918991 -2.512058484e-23)
(-0.08536631236 0.195610253 2.8388157e-23)
(-0.1059305954 0.1827885465 -2.81290202e-23)
(-0.1264924536 0.1616582611 -1.660903258e-23)
(-0.1468997245 0.1321761903 -5.260184092e-22)
(-0.1668458603 0.09389647467 -8.906553848e-24)
(-0.1857303502 0.04640581418 9.660119873e-24)
(-0.2024782169 -0.01023776018 3.313055799e-22)
(-0.2154155057 -0.07499808645 -5.820693076e-22)
(-0.2220210067 -0.1450310433 0)
(-0.2188032319 -0.2146759023 8.887228107e-22)
(-0.2016257582 -0.2740014689 -4.940794976e-22)
(-0.1668639113 -0.3075810176 -1.572193268e-23)
(-0.1140219945 -0.2953810264 0)
(-0.05288480832 -0.2195801351 -1.890088615e-22)
(-0.004749186406 -0.08377273164 3.360492548e-22)
(-0.0003642007625 0.05902312501 1.550995893e-23)
(-0.01049575491 0.1379880178 -8.764105259e-22)
(-0.02441392726 0.1856802284 -1.157049328e-21)
(-0.04026729156 0.2101382741 -8.628899656e-22)
(-0.05630735673 0.218234697 0)
(-0.07214863781 0.21461886 3.513776781e-23)
(-0.08779229903 0.2018790693 -7.294809437e-23)
(-0.1034563718 0.1810004823 5.867841327e-23)
(-0.1193984889 0.1518996941 3.021343909e-22)
(-0.1357932636 0.1139150719 -1.128188347e-23)
(-0.1526083457 0.06621430272 0)
(-0.1694522515 0.008177286482 -3.603905554e-22)
(-0.1852761685 -0.0601597716 7.515623629e-22)
(-0.1980449489 -0.1372745796 8.831654399e-22)
(-0.2043547051 -0.218926054 -5.296579656e-22)
(-0.199097816 -0.2959711446 5.162643436e-22)
(-0.1760605622 -0.3514071033 1.078203808e-23)
(-0.1300890706 -0.3584149255 -1.095518381e-23)
(-0.06688802914 -0.2843275273 -8.216264603e-23)
(-0.00708331863 -0.1169963884 0)
(-0.0009095801007 0.06540037332 -1.911472421e-23)
(-0.01167593852 0.150281529 -1.326956483e-21)
(-0.02388886672 0.2000657973 1.0942283e-21)
(-0.03601347498 0.2244215182 6.734881705e-22)
(-0.04657318044 0.2316586512 6.014589309e-22)
(-0.05577049707 0.2272392216 6.643911636e-22)
(-0.06411258524 0.214177378 -4.458648699e-23)
(-0.072275757 0.1936493738 -3.461316985e-22)
(-0.08096987995 0.1656028128 2.152150804e-22)
(-0.09087208023 0.1292707576 0)
(-0.1025549053 0.08353088005 0)
(-0.1163623744 0.0272001864 2.655385334e-22)
(-0.1321591082 -0.04061996632 8.19433437e-23)
(-0.1489253716 -0.1200127291 -2.821601954e-22)
(-0.1641285485 -0.208929962 -5.411242829e-23)
(-0.172787856 -0.3006991374 1.301950935e-22)
(-0.1670311934 -0.3793327884 -3.400456987e-22)
(-0.1365292751 -0.4136450707 -1.594300837e-23)
(-0.08018250806 -0.3538325082 8.205035987e-23)
(-0.01050762256 -0.1594130027 -6.032251293e-22)
(-0.002260500957 0.07348880613 0)
(-0.01580358184 0.1626520917 2.145860749e-21)
(-0.02665048211 0.2117903463 0)
(-0.03422348458 0.2333945795 -1.351798881e-21)
(-0.03759410284 0.2377765372 6.184062022e-23)
(-0.03799699505 0.2312552276 -6.193052087e-22)
(-0.03668282026 0.2171898096 -4.756255899e-22)
(-0.034890538 0.196893399 8.301207451e-22)
(-0.03378856201 0.1703342283 -1.885687828e-22)
(-0.03449895019 0.1367221337 0)
(-0.0381159115 0.09479679084 0)
(-0.04565010314 0.04304293931 2.410619431e-23)
(-0.05790821281 -0.02013772936 -6.007172792e-22)
(-0.07514614213 -0.09620641793 -4.30954715e-22)
(-0.09645188843 -0.1855555353 4.637841173e-22)
(-0.1183463759 -0.2853566963 -6.488687746e-22)
(-0.1332716227 -0.3838385685 9.119895819e-23)
(-0.1265351486 -0.4504357814 2.937813449e-23)
(-0.08899155804 -0.4198535489 5.660486309e-22)
(-0.01526918029 -0.211171924 6.020883863e-22)
(-0.005180901674 0.08598044494 0)
(-0.02525553295 0.1766290637 1.465579945e-22)
(-0.03483413964 0.2205960641 -4.917116215e-23)
(-0.03640023482 0.2354858233 7.642882497e-22)
(-0.0301849602 0.234340562 -7.005332793e-22)
(-0.01916595215 0.2241602896 4.74645246e-23)
(-0.005615326825 0.208352512 -1.01860463e-22)
(0.00856941893 0.188124069 -3.389869812e-22)
(0.02179866662 0.1633911208 2.062812727e-22)
(0.0326276216 0.1333242973 0)
(0.03958439944 0.09664090964 0)
(0.04116995749 0.05174062723 -2.902656284e-22)
(0.03578467566 -0.00325532936 0)
(0.02198169885 -0.07058354087 -5.512166028e-22)
(-0.001264976875 -0.1525734892 -1.492366859e-23)
(-0.03310480898 -0.2505949298 2.559714636e-23)
(-0.06909244624 -0.3599340983 2.203099091e-22)
(-0.0922783277 -0.4575424005 4.788357936e-24)
(-0.08718092265 -0.4698128829 -5.789457594e-22)
(-0.02103127393 -0.2698971914 0)
(-0.01111631654 0.1085974961 0)
(-0.04248903962 0.1947151414 -8.848435852e-22)
(-0.04795534157 0.2258194964 -5.411015005e-22)
(-0.03919544695 0.2282134814 4.543792575e-22)
(-0.01877842425 0.2182327339 -1.70998677e-24)
(0.007664163923 0.2028219632 -4.561022553e-23)
(0.03667976383 0.1847619225 5.696648531e-22)
(0.0658298039 0.1647117894 -2.766876232e-23)
(0.09327112326 0.1423128112 -2.069771571e-22)
(0.1173889794 0.1166275108 3.142199403e-23)
(0.1365459973 0.08641147466 -3.425903193e-23)
(0.1489667691 0.05017673836 -3.690580521e-23)
(0.1525274373 0.006159220193 3.205621579e-22)
(0.1449365802 -0.04796121895 6.119582621e-22)
(0.1235158729 -0.1153052467 -5.101148455e-22)
(0.08633524663 -0.20041953 -1.616038538e-22)
(0.03199081615 -0.3067806319 1.531327464e-22)
(-0.02362128645 -0.4239836869 7.293678918e-23)
(-0.06492415283 -0.4871612474 1.91329541e-21)
(-0.02509972008 -0.3291544498 2.954995759e-21)
(-0.02004680378 0.1460727474 -4.390193724e-23)
(-0.06416407188 0.2112955812 4.417366393e-23)
(-0.05070233669 0.217730024 1.000184247e-21)
(-0.01934103191 0.2014679581 -8.270493484e-24)
(0.02414456167 0.1809075699 0)
(0.07154110589 0.1606932882 4.363695613e-23)
(0.1190702052 0.1416495119 -2.273838389e-22)
(0.1644765847 0.1233181584 -9.02790316e-23)
(0.2062249622 0.104811722 3.680714101e-23)
(0.2429641516 0.08507140919 -1.70164783e-23)
(0.2732206168 0.06296149815 3.429956485e-23)
(0.2952534848 0.03726296838 -6.592654427e-23)
(0.306696996 0.006535102147 -9.303877777e-23)
(0.3049737382 -0.03087766758 1.517036633e-22)
(0.286393549 -0.07786288228 0)
(0.2470567477 -0.1399300179 1.505589139e-22)
(0.1810921743 -0.2266299665 2.5600162e-22)
(0.09604446561 -0.3443894838 0)
(-0.006697634706 -0.4552210101 -3.675641065e-21)
(-0.01922408508 -0.377753748 -2.892625092e-21)
(-0.025919511 0.2276828873 -9.51419495e-22)
(-0.03998324256 0.2238216578 -1.388972383e-22)
(0.03656136541 0.1810585313 -2.335571054e-22)
(0.1090502854 0.1451058947 -1.193736705e-22)
(0.1817190795 0.1172445288 -4.295801178e-23)
(0.2490090114 0.09627905438 9.783106348e-23)
(0.310033589 0.08002508541 -1.408581995e-22)
(0.3646208379 0.06656814075 1.297167369e-22)
(0.4126251466 0.05449178412 -8.620073238e-23)
(0.4536249269 0.04270895236 1.132189295e-25)
(0.4867877754 0.03032299392 1.52773509e-23)
(0.5107450506 0.01652903279 7.997171865e-23)
(0.5236596746 0.0005365295237 -1.811116162e-22)
(0.523179747 -0.01863371769 -1.617138756e-22)
(0.5052323018 -0.04286477757 -4.262905091e-23)
(0.4658714796 -0.07633230428 0)
(0.395269629 -0.128608936 -1.846489616e-22)
(0.2916070891 -0.2208468091 8.148775726e-22)
(0.119745501 -0.3525016895 1.631603592e-21)
(0.02670547021 -0.3775497964 2.172656907e-21)
(0.2142894492 0.1347447229 9.86497881e-22)
(0.2776311257 0.09870503832 0)
(0.431659237 0.05810414954 -2.594310759e-22)
(0.5304749381 0.03846264895 -1.741656837e-22)
(0.6016965694 0.02623418923 0)
(0.6571198788 0.01831923239 -6.009043487e-23)
(0.7015213323 0.01313600647 6.37795182e-23)
(0.7376042137 0.009542125248 -1.800143673e-23)
(0.7669368009 0.006804463718 2.885954821e-23)
(0.7902106277 0.0044647452 2.315020042e-23)
(0.8074554641 0.002221322094 0)
(0.8182621054 -0.0001500721547 -2.873019963e-23)
(0.8216499499 -0.002723845303 0)
(0.8162394069 -0.005712666393 2.73812656e-23)
(0.7991333092 -0.00961138149 1.421668273e-23)
(0.7679986336 -0.01500255069 -5.799427231e-23)
(0.7106555765 -0.02502520013 -2.535668085e-22)
(0.6235183986 -0.04204285478 -6.918111377e-22)
(0.4230091018 -0.09182968155 0)
(0.2705674687 -0.1524021844 -2.119484748e-21)
)
;

boundaryField
{
    movingWall
    {
        type            calculated;
        value           uniform (1 0 0);
    }
    fixedWalls
    {
        type            calculated;
        value           uniform (0 0 0);
    }
    frontAndBack
    {
        type            empty;
    }
}


// ************************************************************************* //
