/*--------------------------------*- C++ -*----------------------------------*\
  =========                 |
  \\      /  F ield         | OpenFOAM: The Open Source CFD Toolbox
   \\    /   O peration     | Website:  https://openfoam.org
    \\  /    A nd           | Version:  13
     \\/     M anipulation  |
\*---------------------------------------------------------------------------*/
FoamFile
{
    format      ascii;
    class       scalarField;
    location    "38";
    object      p_all;
}
// * * * * * * * * * * * * * * * * * * * * * * * * * * * * * * * * * * * * * //


400
(
-2.003933351e-09
-0.0005275228982
-0.001170652132
-0.001667913794
-0.001899790315
-0.001817105861
-0.001395609017
-0.0006245986091
0.000486656869
0.001893890089
0.003502904149
0.005163329332
0.006679531064
0.007842133397
0.008478138991
0.008507246163
0.007985042977
0.007116989772
0.006234169886
0.005681894219
0.0005345408986
-1.122530313e-05
-0.0005788215117
-0.0009758859161
-0.001149659315
-0.001073455966
-0.0007263512962
-9.350992276e-05
0.0008252014094
0.002000528672
0.003358998969
0.004775850684
0.006082311756
0.007093801396
0.007655430602
0.007693932194
0.007255834886
0.006512556108
0.005724663585
0.005162745809
0.00120284299
0.0005195711047
-8.017684452e-05
-0.0004426932617
-0.0006014099766
-0.0005638916692
-0.0003150859079
0.0001673510981
0.0008995990751
0.001874049994
0.003041006366
0.004297089245
0.005488307093
0.006434527365
0.006974623933
0.007020867804
0.006599521834
0.005850202784
0.004977706478
0.004245650328
0.001682461531
0.0008012586536
8.461040768e-05
-0.0003210375862
-0.0005269137322
-0.0005733823945
-0.0004490135097
-0.0001192809162
0.0004542307879
0.001290901112
0.00236625735
0.003593017934
0.004817445929
0.00584025347
0.006464049818
0.006557297843
0.006108085597
0.005229021385
0.004105668322
0.003072242359
0.001718804344
0.0006373460039
-0.0002222370118
-0.0007148792504
-0.001018055796
-0.001197310299
-0.001238795244
-0.001089634221
-0.0006823285008
3.676874454e-05
0.001074952624
0.002364854973
0.003749814607
0.004998225227
0.005851413423
0.006100861963
0.005665962665
0.004619914108
0.003148998152
0.001718480812
0.001100986177
-0.0001590183773
-0.001163058498
-0.001772192527
-0.002219822257
-0.002588609667
-0.002855994842
-0.002944423192
-0.002749443023
-0.00217253242
-0.001161306791
0.0002513764613
0.001914653737
0.003561654609
0.004850109992
0.005452708131
0.00516988174
0.0039973218
0.002119390626
0.0001936421373
-0.0003483423896
-0.001754748928
-0.00289655677
-0.003649078895
-0.004292433005
-0.004920243118
-0.005497028383
-0.005915682664
-0.006026721714
-0.005672736846
-0.004734631059
-0.003187654761
-0.001148644968
0.001091754102
0.003092607176
0.004357942694
0.004492305802
0.003335745109
0.001031557301
-0.001500584988
-0.002765780426
-0.00428019898
-0.005549112845
-0.006471384588
-0.007366023275
-0.008334706
-0.009328516163
-0.0102090683
-0.01077542306
-0.01079651989
-0.0100606186
-0.008443335469
-0.005985729978
-0.002964793187
8.579938459e-05
0.0024542421
0.003444576892
0.002605053455
-6.557001419e-05
-0.003316478103
-0.006235343003
-0.007814711805
-0.009194539779
-0.01030651457
-0.01150340822
-0.01289661241
-0.01442815833
-0.01593138124
-0.01715163494
-0.01777188665
-0.01745999961
-0.01594599601
-0.01313048133
-0.009207670464
-0.004758620164
-0.0007305446084
0.001763192035
0.001773674382
-0.00105198983
-0.005098983771
-0.01077878542
-0.01237578374
-0.01383771033
-0.01513737816
-0.01666195881
-0.01854056637
-0.02071610057
-0.02300200108
-0.02509375674
-0.02658309883
-0.02699644345
-0.02587394737
-0.02290455839
-0.0180982634
-0.0119831417
-0.005697170957
-0.0008578067552
0.0008292531669
-0.001686422323
-0.006498746386
-0.01635561322
-0.01791750694
-0.01940619552
-0.02084271831
-0.02266111262
-0.02502522118
-0.02789395724
-0.0310732773
-0.03421814238
-0.03683294789
-0.03829534006
-0.03792557644
-0.03514586607
-0.02966384885
-0.02180515787
-0.01275881924
-0.004635552293
-0.0001489766563
-0.001528232012
-0.006840580218
-0.02288203039
-0.02434544483
-0.02575594502
-0.02719131275
-0.0291675664
-0.03191289233
-0.03542072839
-0.03950178373
-0.04378079067
-0.04768490269
-0.05045268167
-0.05118981896
-0.04898415594
-0.04318946443
-0.03375507585
-0.02168915327
-0.009425672876
-0.000816222478
0.0001958568541
-0.00492763621
-0.03028043496
-0.0315539558
-0.03269312386
-0.03385305906
-0.03570637587
-0.03859061882
-0.04255065306
-0.0474064281
-0.0527552417
-0.0579540603
-0.06211422262
-0.06413640488
-0.06281745912
-0.05709044718
-0.04641341333
-0.03135722343
-0.01434694094
-0.0002584039448
0.004827567724
0.001238653183
-0.03858143366
-0.03949131487
-0.04000699087
-0.04042159545
-0.04169745003
-0.04433665443
-0.04843913499
-0.05381997517
-0.06003392691
-0.06636045323
-0.07178978697
-0.07504081838
-0.07464564557
-0.06914994267
-0.05748469956
-0.03959467597
-0.01748650084
0.003361236199
0.01462967507
0.01481643133
-0.04812683393
-0.0482623903
-0.04750404873
-0.04643841378
-0.04651127315
-0.04842363204
-0.05229679191
-0.05789528988
-0.06469019833
-0.07185359905
-0.07824048459
-0.08239340482
-0.08260587134
-0.07708858661
-0.0642945609
-0.0434956378
-0.01594191153
0.01295795993
0.03304394553
0.04034309887
-0.05991650032
-0.05829613782
-0.05505204236
-0.05142962381
-0.04955380942
-0.05025282473
-0.05356038299
-0.05910316519
-0.06620080019
-0.07386726555
-0.08078679867
-0.08530567951
-0.08547724279
-0.07920213018
-0.06451863014
-0.04009554585
-0.006284335527
0.03228861978
0.06447782087
0.08326466683
-0.07619814191
-0.07066149491
-0.0626214549
-0.05494862494
-0.05036400219
-0.04947551327
-0.05201042833
-0.05733015137
-0.06452008146
-0.07237850157
-0.07937885048
-0.08364021003
-0.08294755582
-0.0748584589
-0.05697272323
-0.02736972435
0.01452125032
0.06544981236
0.1143498596
0.1501477002
-0.1041236366
-0.08790015789
-0.06996537999
-0.05626451809
-0.04836630672
-0.04575848436
-0.04754001533
-0.05265344296
-0.05986274589
-0.06771470791
-0.07446416343
-0.07800253646
-0.07583917839
-0.06512815919
-0.04287309909
-0.006247271525
0.04669910916
0.1152722869
0.1914374557
0.2582444995
-0.1759383642
-0.1148590561
-0.07360221158
-0.05189384341
-0.0411856418
-0.03756629111
-0.0392533939
-0.04467969757
-0.0522413218
-0.06027414259
-0.06689709639
-0.06985763515
-0.0664755191
-0.05356813928
-0.02740507268
0.01635658182
0.08266880153
0.1773120393
0.3053589739
0.4526344853
-0.3558094593
-0.1552237389
-0.07041863108
-0.0427818999
-0.03135237618
-0.02759414915
-0.02975421612
-0.03591586062
-0.04414294953
-0.05264049861
-0.05949895689
-0.0624577895
-0.0587875439
-0.0451545567
-0.01725939504
0.03077472512
0.1083719456
0.2333025711
0.4347507955
0.7358209987
)


// ************************************************************************* //
