/*--------------------------------*- C++ -*----------------------------------*\
  =========                 |
  \\      /  F ield         | OpenFOAM: The Open Source CFD Toolbox
   \\    /   O peration     | Website:  https://openfoam.org
    \\  /    A nd           | Version:  13
     \\/     M anipulation  |
\*---------------------------------------------------------------------------*/
FoamFile
{
    format      ascii;
    class       surfaceScalarField;
    location    "38";
    object      phi;
}
// * * * * * * * * * * * * * * * * * * * * * * * * * * * * * * * * * * * * * //

dimensions      [0 3 -1 0 0 0 0];

internalField   nonuniform List<scalar> 
760
(
-1.321921947e-05
1.321818903e-05
-7.201796888e-05
5.879875065e-05
-0.0001620728039
9.005483934e-05
-0.0002652229129
0.0001031501129
-0.0003682425696
0.0001030196554
-0.0004615043931
9.326182012e-05
-0.000537750013
7.624562123e-05
-0.0005912420912
5.349208589e-05
-0.0006175092803
2.626719862e-05
-0.0006135893014
-3.919974105e-06
-0.0005784599756
-3.512932652e-05
-0.000513842776
-6.461720328e-05
-0.0004246595067
-8.918327058e-05
-0.000319281789
-0.0001053777132
-0.000209225419
-0.0001100563608
-0.0001081385993
-0.0001010868099
-2.99250015e-05
-7.821359185e-05
1.414933592e-05
-4.407433542e-05
2.190955241e-05
-7.7602072e-06
2.190955227e-05
-6.870352181e-05
8.192171193e-05
-0.000245775729
0.0002358709592
-0.0004934733403
0.0003377524493
-0.0007722779452
0.0003819547225
-0.001050409447
0.0003811511675
-0.001303006161
0.000345858543
-0.001510604213
0.000283843677
-0.001657872216
0.000200760086
-0.001733199752
0.0001015947304
-0.001729305529
-7.814200892e-06
-0.001643831223
-0.0001206036285
-0.001481413861
-0.0002270345571
-0.001254381718
-0.000316215402
-0.0009832947839
-0.000376464633
-0.000696141562
-0.000397209571
-0.0004257314311
-0.0003714969347
-0.0002049932533
-0.0002989517686
-5.981230257e-05
-0.0001892552826
-4.921800131e-07
-6.708033736e-05
2.141738224e-05
-0.0001229342577
0.000204855971
-0.0004149724168
0.0005279091264
-0.0008086682551
0.0007314482889
-0.001247165183
0.0008204516491
-0.001684661552
0.0008186475362
-0.002084430292
0.0007456272834
-0.002416965719
0.0006163791092
-0.002658576349
0.0004423707243
-0.002790991688
0.000234010078
-0.002802413633
3.607742566e-06
-0.002687902175
-0.0002351150835
-0.002452961637
-0.0004619750937
-0.002114171754
-0.0006550052813
-0.001700374264
-0.0007902621175
-0.00125182235
-0.0008457614797
-0.000816744676
-0.0008065746117
-0.0004446232966
-0.0006710731597
-0.0001762320879
-0.0004576465061
-3.221222006e-05
-0.0002111001984
-1.079483415e-05
-0.0001720783712
0.0003769343413
-0.0005725607397
0.0009283915015
-0.001105967722
0.001264855277
-0.001698036332
0.001412520263
-0.002290596902
0.001411208109
-0.002837254223
0.001292284605
-0.003300217078
0.001079341964
-0.003648291849
0.0007904454949
-0.003856338765
0.0004420569914
-0.003905815993
5.308498074e-05
-0.003787747589
-0.0003531834868
-0.003504024763
-0.0007456979157
-0.0030712724
-0.001087757638
-0.002522630779
-0.001338903734
-0.001907996119
-0.001460396143
-0.001290905523
-0.001423665221
-0.0007407542113
-0.001221224489
-0.0003202708973
-0.0008781298295
-7.110223358e-05
-0.0004602688546
-8.189706518e-05
-0.0002170221018
0.0005939564432
-0.0007188331948
0.001430202593
-0.001385655631
0.001931677716
-0.002127123334
0.002153987969
-0.00287437387
0.002158458651
-0.003573195023
0.001991105766
-0.004178978986
0.001685125933
-0.004653584028
0.001265050539
-0.004964198311
0.00075267127
-0.005084017077
0.0001729037398
-0.004995023025
-0.0004421775431
-0.004691188775
-0.001049532164
-0.004183517967
-0.001595428439
-0.003504389668
-0.002018032027
-0.002710450028
-0.002254335782
-0.001881577867
-0.002252537389
-0.00111323315
-0.001989569215
-0.0005008210522
-0.001490541927
-0.0001191421269
-0.0008419477707
-0.0002010391897
-0.0002573667406
0.0008513231888
-0.0008513397782
0.002024175628
-0.001642296613
0.00272263455
-0.002526557142
0.003038248497
-0.00342690092
0.003058802429
-0.004283388434
0.002847593286
-0.005046214379
0.002447951885
-0.005671017704
0.001889853868
-0.006116751026
0.001198404591
-0.006345981502
0.0004021342095
-0.006327842962
-0.0004603160885
-0.006042475882
-0.001334899243
-0.005488323411
-0.002149580901
-0.004689981726
-0.002816373699
-0.003705727383
-0.003238590116
-0.002631183228
-0.003327081541
-0.001594226859
-0.003026525582
-0.0007363871809
-0.002348381598
-0.0001821206391
-0.001396214304
-0.0003831598267
-0.0002911841164
0.001142507309
-0.0009641251969
0.002697116714
-0.001864163629
0.003622672984
-0.002878145434
0.004052230302
-0.003923464304
0.0041041213
-0.004937001225
0.00386113021
-0.005865888386
0.003376839052
-0.006661001559
0.002684967045
-0.007273439234
0.001810842268
-0.007653972883
0.0007826678553
-0.00775580534
-0.0003584836351
-0.007539788161
-0.001550916422
-0.006984027257
-0.002705341798
-0.006095814123
-0.003704586821
-0.004925704005
-0.004408700221
-0.003579479741
-0.004673305795
-0.002220388131
-0.004385617184
-0.001050845613
-0.003517924106
-0.0002684677646
-0.002178592147
-0.0006516275897
-0.0003159655589
0.001458472866
-0.001048737525
0.003429888686
-0.002034531606
0.004608467068
-0.0031549036
0.005172602299
-0.004325132857
0.00527435056
-0.005481848937
0.005017846294
-0.006571931724
0.004466921844
-0.007544120441
0.003657155766
-0.008343810635
0.002610532463
-0.008911129804
0.001349987022
-0.009182805669
-8.680777416e-05
-0.00909701229
-0.001636709802
-0.008604583865
-0.003197770218
-0.007684198734
-0.004624971945
-0.0063640682
-0.005728830747
-0.004746043243
-0.006291330744
-0.003022882141
-0.00610877828
-0.001469581245
-0.005071224997
-0.0003882445188
-0.00325992887
-0.001039872107
-0.0003291955791
0.001787668444
-0.001096442956
0.004197136066
-0.002135079526
0.005647103638
-0.00332536817
0.006362890944
-0.0045836513
0.006532633694
-0.005849372958
0.006283567958
-0.007072574505
0.0056901234
-0.008203824261
0.004788405529
-0.009187257796
0.003593966002
-0.009956893101
0.002119622325
-0.01043606893
0.0003923680481
-0.01054224926
-0.001530529473
-0.01019503457
-0.003544984908
-0.009334088829
-0.005485917686
-0.007946628736
-0.007116290839
-0.006105926549
-0.008132032929
-0.004012930083
-0.008201774743
-0.002014592891
-0.007069562187
-0.0005528021892
-0.004721719571
-0.001592674296
-0.0003297928543
0.002117461301
-0.001101701799
0.004969045012
-0.002151423269
0.006696825109
-0.003361077776
0.007572545449
-0.004650845462
0.007822401382
-0.005965956691
0.007598679194
-0.007263379164
0.006987545884
-0.008500565675
0.006025592049
-0.009627011491
0.004720411825
-0.01057860242
0.003071213257
-0.01127459498
0.001088360602
-0.01161814849
-0.001186975963
-0.01150162881
-0.003661504593
-0.01082052591
-0.006167020589
-0.009503001159
-0.008433815596
-0.00756060864
-0.01007442545
-0.005160873134
-0.01060151025
-0.002696115476
-0.009534319846
-0.0007741503047
-0.006643684741
-0.0023668246
-0.0003199349363
0.002437396242
-0.001066686715
0.005715796794
-0.002080423916
0.00771056231
-0.003246814617
0.008738936149
-0.004492307988
0.009067894753
-0.005770873359
0.008877244571
-0.007050316157
0.008266988691
-0.008300542168
0.007275818073
-0.00948430209
0.005904171757
-0.0105499626
0.004136873771
-0.01142562071
0.001964018714
-0.0120141722
-0.0005984244749
-0.01219379457
-0.003481882226
-0.01182096877
-0.006539846389
-0.01075537853
-0.009499405838
-0.008913750494
-0.01191605348
-0.00637085769
-0.01314440305
-0.003498965089
-0.01240621245
-0.001063151349
-0.009079498479
-0.003429975949
-0.0003074094403
0.002744805685
-0.001006587511
0.006414974871
-0.001938354881
0.008642329682
-0.002991899079
0.009792480344
-0.00410281359
0.01017880926
-0.005237449132
0.01001188011
-0.006378628184
0.00940816775
-0.007514083991
0.00841127389
-0.008627331972
0.007017419749
-0.009689844392
0.005199386202
-0.01065314257
0.002927316903
-0.01143756803
0.0001860009825
-0.01192945635
-0.002989993901
-0.01196499058
-0.006504312156
-0.01134373903
-0.01012065739
-0.009868967796
-0.01339082472
-0.007460114196
-0.01555325665
-0.004363834503
-0.01550249214
-0.001425535605
-0.01201779737
-0.004855511553
-0.0003089282918
0.003053733979
-0.0009555675253
0.007061614113
-0.001768490226
0.009455252384
-0.002639390837
0.01066338095
-0.003518262403
0.01105768083
-0.00438972305
0.01088334076
-0.005256719709
0.01027516441
-0.00612951508
0.009284069267
-0.007017707702
0.007905612379
-0.007923327276
0.006105005786
-0.008832213869
0.003836203506
-0.009704215133
0.001058002256
-0.0104507269
-0.002243482124
-0.01092412052
-0.006030918536
-0.01089502883
-0.01014974907
-0.01006488835
-0.01422096519
-0.008157305614
-0.01746083938
-0.005167631657
-0.01849216609
-0.001854348983
-0.01533108004
-0.006709860533
-0.0003552701094
0.003409004092
-0.0009733333337
0.007679677345
-0.001646057745
0.0101279768
-0.00226871085
0.01128603405
-0.00281684061
0.01160581058
-0.003303694326
0.01137019447
-0.00375941082
0.0107308809
-0.004220925575
0.009745584023
-0.004726147795
0.008410834605
-0.005309763593
0.006688621591
-0.005996657525
0.004523097447
-0.006791799128
0.001853143868
-0.007660586382
-0.001374694862
-0.008503030081
-0.00518847483
-0.009113178755
-0.00953960039
-0.009142508512
-0.01419163543
-0.008128400925
-0.01847494697
-0.005711156675
-0.02090941033
-0.002318284796
-0.01872395192
-0.009028145327
-0.0005003770946
0.003909381193
-0.001151296698
0.008330596956
-0.001674821431
0.01065150153
-0.001981640913
0.01159285354
-0.002095673192
0.01171984286
-0.002075736517
0.0113502578
-0.001988478127
0.01064362251
-0.001901152308
0.009658258202
-0.001878928152
0.008388610449
-0.001985972135
0.006795665578
-0.002282467943
0.004819593259
-0.002818756671
0.002389432602
-0.003622153055
-0.0005712984731
-0.004668843643
-0.004141784236
-0.005834635594
-0.008373808435
-0.006807664221
-0.01321860679
-0.007016669164
-0.01826594202
-0.005716401194
-0.0222096783
-0.002739567126
-0.02170078598
-0.01176771245
-0.0008308854448
0.004740266645
-0.001604833097
0.009104544616
-0.001950979816
0.01099764826
-0.001839383441
0.01148125717
-0.001385435655
0.01126589508
-0.0007181326416
0.01068295479
4.821224571e-05
0.009877277626
0.0008164036797
0.008890066766
0.001495359622
0.007709654505
0.00199842319
0.00629260201
0.002238516631
0.004579499819
0.002128354078
0.002499595156
0.001583159311
-2.610370423e-05
0.0005450308456
-0.003103655768
-0.0009843152011
-0.006844462385
-0.002828402279
-0.01137451971
-0.004459126349
-0.01663521794
-0.004810489727
-0.02185831492
-0.002944290976
-0.02356698473
-0.01471200343
-0.001465682586
0.006205949238
-0.002379876868
0.0100187389
-0.00237344529
0.01099121668
-0.001603542487
0.01071135438
-0.0003496270904
0.0100119797
0.001163641763
0.009169685938
0.002771841166
0.008269078223
0.00434953324
0.00731237469
0.005791622855
0.006267564888
0.00699801413
0.005086210733
0.007865492598
0.00371202135
0.008282284719
0.002082803034
0.008123821751
0.0001323592638
0.007264496358
-0.002244330373
0.005585212717
-0.005165178743
0.003073872752
-0.008863179746
7.897173667e-05
-0.01364031693
-0.002445747515
-0.01933359567
-0.002601078071
-0.02341165417
-0.01731308149
-0.002365504024
0.008571453267
-0.002963808844
0.01061704372
-0.001922814307
0.009950222146
8.111497572e-05
0.008707425105
0.002534886704
0.007558207974
0.005140255236
0.00656431741
0.007719753052
0.005689580409
0.01015462098
0.004877506765
0.01234957297
0.004072612895
0.01421200181
0.003223781897
0.01564053977
0.002283483385
0.01651758861
0.001205754195
0.01669709936
-4.715148229e-05
0.016027126
-0.001574357015
0.01430508985
-0.00344314259
0.01133283059
-0.005890920485
0.007055613562
-0.009363099894
0.002201623534
-0.01447960563
-0.001027320599
-0.02018271004
-0.01834040209
-0.00215034288
0.01072179615
-7.199468986e-05
0.008538695506
0.003741898353
0.006136329114
0.00771977267
0.00472955079
0.01156187076
0.003716109886
0.01514101022
0.002985177954
0.01839885578
0.002431734861
0.02130155511
0.001974807435
0.0238124333
0.001561734717
0.02587973445
0.001156480749
0.02743056866
0.0007326491748
0.02836472792
0.0002715949459
0.02857561726
-0.0002580408202
0.0278876651
-0.0008864048537
0.02609934117
-0.001654818666
0.02290826558
-0.002699844891
0.01790696677
-0.004361801082
0.0107669081
-0.007339546964
0.002912180347
-0.01232798228
-0.01542822175
0.01072179613
0.01926049164
0.02539682076
0.03012637155
0.03384248144
0.0368276594
0.03925939427
0.0412342017
0.04279593642
0.04395241718
0.04468506635
0.0449566613
0.04469862048
0.04381221563
0.04215739696
0.03945755207
0.03509575099
0.02775620402
0.01542822175
)
;

boundaryField
{
    movingWall
    {
        type            calculated;
        value           uniform 0;
    }
    fixedWalls
    {
        type            calculated;
        value           uniform 0;
    }
    frontAndBack
    {
        type            empty;
    }
}


// ************************************************************************* //
