/*--------------------------------*- C++ -*----------------------------------*\
  =========                 |
  \\      /  F ield         | OpenFOAM: The Open Source CFD Toolbox
   \\    /   O peration     | Website:  https://openfoam.org
    \\  /    A nd           | Version:  13
     \\/     M anipulation  |
\*---------------------------------------------------------------------------*/
FoamFile
{
    format      ascii;
    class       surfaceScalarField;
    location    "38";
    object      phi_0;
}
// * * * * * * * * * * * * * * * * * * * * * * * * * * * * * * * * * * * * * //

dimensions      [0 3 -1 0 0 0 0];

internalField   nonuniform List<scalar> 
760
(
-1.321922324e-05
1.321818671e-05
-7.201797031e-05
5.879874689e-05
-0.0001620728075
9.005483358e-05
-0.0002652229196
0.0001031501124
-0.0003682425708
0.0001030196637
-0.0004615043847
9.326182932e-05
-0.0005377500028
7.624562073e-05
-0.0005912420901
5.349207425e-05
-0.0006175092908
2.626718452e-05
-0.0006135893129
-3.919980294e-06
-0.0005784599807
-3.512931776e-05
-0.000513842774
-6.46171873e-05
-0.0004246595024
-8.918325712e-05
-0.0003192817866
-0.0001053777094
-0.0002092254158
-0.0001100563666
-0.0001081385871
-0.0001010868183
-2.992497773e-05
-7.821359347e-05
1.414935527e-05
-4.407432623e-05
2.190955717e-05
-7.76022247e-06
2.190952993e-05
-6.870352377e-05
8.192171198e-05
-0.0002457757339
0.0002358709648
-0.0004934733378
0.0003377524528
-0.0007722779395
0.000381954721
-0.001050409445
0.0003811511618
-0.001303006164
0.0003458585368
-0.00151060422
0.0002838436745
-0.001657872221
0.0002007600903
-0.001733199753
0.0001015947428
-0.001729305519
-7.814180678e-06
-0.001643831215
-0.0001206036102
-0.001481413859
-0.0002270345443
-0.001254381725
-0.0003162153965
-0.0009832947949
-0.0003764646336
-0.0006961415644
-0.0003972095749
-0.0004257314144
-0.0003714969395
-0.0002049932209
-0.0002989517757
-5.981227479e-05
-0.000189255299
-4.92171952e-07
-6.708037164e-05
2.141736158e-05
-0.0001229342545
0.0002048559697
-0.0004149724227
0.0005279091262
-0.0008086682583
0.0007314482935
-0.001247165182
0.0008204516536
-0.001684661551
0.0008186475384
-0.002084430289
0.0007456272821
-0.002416965715
0.0006163791047
-0.002658576344
0.0004423707189
-0.002790991681
0.0002340100763
-0.002802413624
3.607765714e-06
-0.002687902173
-0.0002351150739
-0.002452961643
-0.0004619750816
-0.002114171767
-0.0006550052711
-0.001700374278
-0.0007902621137
-0.001251822354
-0.000845761484
-0.0008167446624
-0.0008065746236
-0.0004446232744
-0.0006710731774
-0.0001762320758
-0.0004576465284
-3.221223554e-05
-0.000211100228
-1.079485734e-05
-0.0001720783666
0.0003769343413
-0.0005725607398
0.0009283914928
-0.001105967724
0.001264855273
-0.001698036334
0.001412520262
-0.002290596905
0.001411208112
-0.002837254225
0.00129228461
-0.003300217075
0.001079341967
-0.003648291839
0.0007904454951
-0.003856338745
0.0004420569875
-0.003905815982
5.308497174e-05
-0.003787747583
-0.00035318349
-0.00350402477
-0.0007456979128
-0.00307127242
-0.001087757631
-0.002522630803
-0.001338903726
-0.001907996131
-0.001460396137
-0.001290905515
-0.001423665219
-0.0007407541931
-0.001221224492
-0.0003202708908
-0.0008781298385
-7.110223952e-05
-0.0004602688671
-8.189707414e-05
-0.0002170221034
0.0005939564468
-0.0007188331905
0.00143020259
-0.001385655628
0.001931677711
-0.002127123331
0.002153987963
-0.002874373869
0.002158458646
-0.003573195025
0.001991105763
-0.004178978987
0.001685125931
-0.004653584022
0.001265050537
-0.004964198297
0.0007526712666
-0.005084017059
0.0001729037342
-0.004995023012
-0.0004421775478
-0.004691188776
-0.001049532165
-0.004183517985
-0.001595428433
-0.003504389692
-0.002018032014
-0.002710450044
-0.002254335763
-0.001881577866
-0.00225253737
-0.001113233138
-0.0019895692
-0.0005008210482
-0.001490541919
-0.0001191421248
-0.0008419477665
-0.0002010391854
-0.0002573667464
0.0008513231872
-0.0008513397764
0.002024175632
-0.001642296611
0.002722634551
-0.002526557139
0.003038248496
-0.003426900917
0.003058802426
-0.004283388434
0.002847593281
-0.00504621438
0.002447951879
-0.0056710177
0.001889853862
-0.006116751015
0.001198404586
-0.006345981483
0.0004021342042
-0.006327842943
-0.0004603160933
-0.006042475875
-0.001334899245
-0.005488323419
-0.002149580897
-0.004689981744
-0.002816373687
-0.003705727396
-0.003238590095
-0.00263118323
-0.003327081516
-0.001594226853
-0.00302652556
-0.0007363871798
-0.002348381582
-0.0001821206345
-0.001396214293
-0.0003831598174
-0.0002911841171
0.001142507301
-0.0009641251967
0.002697116712
-0.001864163628
0.003622672983
-0.002878145433
0.004052230302
-0.003923464304
0.004104121301
-0.004937001226
0.003861130209
-0.005865888388
0.003376839049
-0.006661001556
0.00268496704
-0.007273439224
0.00181084226
-0.007653972864
0.0007826678471
-0.007755805319
-0.0003584836436
-0.007539788146
-0.001550916429
-0.006984027254
-0.0027053418
-0.00609581413
-0.003704586816
-0.004925704014
-0.004408700209
-0.003579479745
-0.004673305779
-0.002220388131
-0.004385617168
-0.001050845615
-0.003517924095
-0.0002684677614
-0.002178592138
-0.0006516275831
-0.0003159655526
0.001458472863
-0.001048737522
0.003429888679
-0.002034531603
0.004608467062
-0.003154903599
0.005172602295
-0.00432513286
0.00527435056
-0.005481848942
0.005017846296
-0.00657193173
0.004466921847
-0.007544120441
0.003657155766
-0.008343810627
0.002610532459
-0.008911129787
0.001349987014
-0.009182805647
-8.680778537e-05
-0.009097012271
-0.001636709815
-0.008604583855
-0.003197770229
-0.007684198733
-0.004624971951
-0.006364068204
-0.005728830748
-0.004746043247
-0.006291330741
-0.003022882144
-0.006108778275
-0.001469581247
-0.005071224993
-0.0003882445182
-0.003259928867
-0.001039872106
-0.0003291955741
0.001787668445
-0.001096442952
0.004197136059
-0.00213507952
0.005647103631
-0.003325368166
0.006362890938
-0.004583651301
0.006532633691
-0.005849372964
0.006283567959
-0.007072574515
0.005690123404
-0.008203824268
0.004788405534
-0.009187257796
0.003593966005
-0.00995689309
0.002119622323
-0.01043606891
0.0003923680404
-0.01054224924
-0.001530529485
-0.01019503456
-0.003544984922
-0.009334088823
-0.005485917699
-0.007946628735
-0.007116290847
-0.006105926551
-0.008132032934
-0.004012930086
-0.008201774745
-0.002014592892
-0.007069562188
-0.0005528021901
-0.004721719572
-0.001592674298
-0.000329792855
0.002117461299
-0.001101701794
0.004969045007
-0.002151423263
0.006696825102
-0.003361077769
0.007572545442
-0.004650845459
0.007822401376
-0.005965956695
0.007598679192
-0.007263379175
0.006987545887
-0.008500565687
0.006025592057
-0.009627011499
0.004720411834
-0.01057860242
0.003071213265
-0.01127459497
0.001088360605
-0.01161814848
-0.001186975965
-0.0115016288
-0.0036615046
-0.01082052591
-0.006167020597
-0.009503001155
-0.008433815603
-0.00756060864
-0.01007442545
-0.005160873135
-0.01060151025
-0.002696115476
-0.009534319847
-0.0007741503056
-0.006643684742
-0.002366824602
-0.0003199349385
0.002437396237
-0.001066686711
0.00571579679
-0.002080423911
0.007710562303
-0.00324681461
0.00873893614
-0.004492307982
0.009067894744
-0.005770873359
0.008877244565
-0.007050316165
0.008266988691
-0.008300542182
0.007275818079
-0.009484302103
0.005904171769
-0.0105499626
0.004136873786
-0.01142562071
0.001964018727
-0.01201417219
-0.0005984244656
-0.01219379456
-0.003481882221
-0.01182096876
-0.006539846388
-0.01075537852
-0.009499405838
-0.008913750492
-0.01191605348
-0.006370857688
-0.01314440305
-0.003498965088
-0.01240621244
-0.00106315135
-0.009079498478
-0.003429975949
-0.0003074094395
0.002744805681
-0.001006587509
0.006414974867
-0.001938354878
0.008642329674
-0.002991899072
0.009792480333
-0.004102813583
0.01017880925
-0.005237449128
0.01001188011
-0.006378628188
0.009408167747
-0.007514084002
0.008411273893
-0.008627331985
0.007017419758
-0.009689844404
0.005199386216
-0.01065314258
0.00292731692
-0.01143756803
0.0001860009977
-0.01192945635
-0.002989993889
-0.01196499058
-0.006504312147
-0.01134373903
-0.01012065738
-0.009868967794
-0.01339082471
-0.007460114194
-0.01555325665
-0.004363834501
-0.01550249213
-0.001425535605
-0.01201779737
-0.004855511552
-0.0003089282894
0.00305373398
-0.000955567527
0.00706161411
-0.001768490226
0.009455252376
-0.002639390832
0.01066338094
-0.003518262394
0.01105768081
-0.004389723043
0.01088334075
-0.005256719708
0.0102751644
-0.006129515087
0.009284069263
-0.007017707713
0.007905612381
-0.007923327288
0.006105005793
-0.008832213878
0.003836203516
-0.00970421514
0.001058002268
-0.01045072691
-0.002243482113
-0.01092412052
-0.006030918527
-0.01089502883
-0.01014974906
-0.01006488835
-0.01422096518
-0.008157305613
-0.01746083938
-0.005167631656
-0.01849216609
-0.001854348982
-0.01533108004
-0.006709860532
-0.0003552701092
0.003409004098
-0.0009733333403
0.007679677345
-0.001646057749
0.01012797679
-0.002268710846
0.01128603405
-0.002816840602
0.01160581057
-0.003303694318
0.01137019446
-0.003759410818
0.01073088089
-0.004220925578
0.009745584011
-0.004726147803
0.008410834597
-0.005309763603
0.006688621588
-0.005996657535
0.004523097448
-0.006791799138
0.001853143872
-0.007660586389
-0.001374694857
-0.008503030087
-0.005188474824
-0.009113178759
-0.009539600385
-0.009142508514
-0.01419163542
-0.008128400925
-0.01847494696
-0.005711156674
-0.02090941033
-0.002318284795
-0.01872395192
-0.009028145325
-0.0005003770979
0.003909381199
-0.00115129671
0.008330596958
-0.001674821439
0.01065150153
-0.001981640913
0.01159285353
-0.002095673187
0.01171984286
-0.002075736511
0.01135025779
-0.001988478125
0.0106436225
-0.001901152309
0.009658258188
-0.001878928156
0.008388610437
-0.001985972142
0.00679566557
-0.002282467951
0.004819593255
-0.00281875668
0.002389432601
-0.003622153063
-0.000571298471
-0.00466884365
-0.004141784233
-0.005834635599
-0.008373808431
-0.006807664224
-0.01321860679
-0.007016669165
-0.01826594201
-0.005716401194
-0.0222096783
-0.002739567126
-0.02170078598
-0.01176771245
-0.0008308854512
0.00474026665
-0.001604833114
0.009104544617
-0.001950979828
0.01099764825
-0.001839383445
0.01148125717
-0.001385435654
0.01126589508
-0.0007181326397
0.01068295478
4.821224638e-05
0.009877277619
0.0008164036792
0.008890066758
0.00149535962
0.007709654498
0.001998423186
0.006292602004
0.002238516626
0.004579499816
0.002128354072
0.002499595155
0.001583159304
-2.610370276e-05
0.0005450308396
-0.003103655765
-0.0009843152058
-0.006844462382
-0.002828402282
-0.01137451971
-0.00445912635
-0.01663521794
-0.004810489727
-0.02185831492
-0.002944290976
-0.02356698473
-0.01471200342
-0.001465682595
0.006205949241
-0.002379876886
0.0100187389
-0.002373445299
0.01099121668
-0.001603542492
0.01071135438
-0.0003496270933
0.0100119797
0.001163641762
0.009169685945
0.002771841165
0.008269078228
0.00434953324
0.007312374693
0.005791622855
0.006267564889
0.006998014129
0.005086210733
0.007865492596
0.00371202135
0.008282284715
0.002082803035
0.008123821747
0.0001323592654
0.007264496353
-0.002244330371
0.005585212713
-0.00516517874
0.003073872749
-0.008863179745
7.897173495e-05
-0.01364031692
-0.002445747516
-0.01933359566
-0.002601078071
-0.02341165417
-0.01731308149
-0.002365504033
0.008571453268
-0.002963808863
0.01061704373
-0.001922814308
0.009950222146
8.111497343e-05
0.008707425116
0.002534886701
0.007558207988
0.005140255232
0.006564317423
0.007719753049
0.005689580419
0.01015462098
0.004877506772
0.01234957297
0.0040726129
0.01421200181
0.0032237819
0.01564053977
0.002283483386
0.01651758861
0.001205754196
0.01669709936
-4.715148194e-05
0.016027126
-0.001574357014
0.01430508985
-0.003443142589
0.01133283059
-0.005890920484
0.00705561356
-0.009363099894
0.002201623533
-0.01447960563
-0.0010273206
-0.02018271004
-0.01834040209
-0.002150342873
0.01072179614
-7.199463802e-05
0.008538695503
0.003741898366
0.006136329136
0.007719772673
0.004729550802
0.01156187076
0.003716109893
0.01514101022
0.002985177959
0.01839885577
0.002431734864
0.02130155511
0.001974807437
0.02381243329
0.001561734718
0.02587973445
0.001156480749
0.02743056866
0.0007326491746
0.02836472791
0.0002715949456
0.02857561725
-0.0002580408211
0.02788766509
-0.0008864048543
0.02609934117
-0.001654818666
0.02290826558
-0.002699844891
0.01790696677
-0.004361801082
0.0107669081
-0.007339546963
0.002912180346
-0.01232798228
-0.01542822175
0.01072179614
0.01926049163
0.02539682076
0.03012637155
0.03384248144
0.03682765939
0.03925939426
0.0412342017
0.04279593642
0.04395241718
0.04468506635
0.0449566613
0.04469862048
0.04381221562
0.04215739696
0.03945755207
0.03509575099
0.02775620402
0.01542822175
)
;

boundaryField
{
    movingWall
    {
        type            calculated;
        value           uniform 0;
    }
    fixedWalls
    {
        type            calculated;
        value           uniform 0;
    }
    frontAndBack
    {
        type            empty;
    }
}


// ************************************************************************* //
