/*--------------------------------*- C++ -*----------------------------------*\
  =========                 |
  \\      /  F ield         | OpenFOAM: The Open Source CFD Toolbox
   \\    /   O peration     | Website:  https://openfoam.org
    \\  /    A nd           | Version:  13
     \\/     M anipulation  |
\*---------------------------------------------------------------------------*/
FoamFile
{
    format      ascii;
    class       volVectorField;
    location    "38";
    object      U;
}
// * * * * * * * * * * * * * * * * * * * * * * * * * * * * * * * * * * * * * //

dimensions      [0 1 -1 0 0 0 0];

internalField   nonuniform List<vector> 
400
(
(1.099979014e-05 -3.783611816e-05 0)
(-0.0006661017612 0.00041304194 -1.550887521e-23)
(-0.002185376086 0.0009203935345 0)
(-0.004047832994 0.001312780754 0)
(-0.005971867964 0.001535065572 6.845077945e-25)
(-0.007762782876 0.001569847588 4.151166561e-24)
(-0.00928454475 0.00142356339 -7.37195517e-24)
(-0.01043594054 0.001119723312 7.532227802e-24)
(-0.01113681299 0.0006960829751 -2.095525465e-25)
(-0.01132710986 0.0002030782911 -3.994850171e-24)
(-0.01097177117 -0.000300232898 5.8038416e-24)
(-0.0100723269 -0.0007475159956 -5.929752405e-23)
(-0.008679879568 -0.001075562644 -6.552876922e-23)
(-0.006902852826 -0.0012330445 -7.784470849e-23)
(-0.004910738031 -0.001192638625 4.573686102e-24)
(-0.002927231876 -0.0009619204443 -4.138035768e-24)
(-0.001205299225 -0.0005912116303 -1.998825395e-22)
(-1.906878664e-05 -0.0001698828661 0)
(0.0005181535006 0.0001720857703 1.509891564e-25)
(0.0002227512503 0.0003059787974 -2.556622572e-24)
(-0.000263365753 0.0008289638043 1.383307561e-25)
(-0.002703308043 0.003383838969 1.560677748e-23)
(-0.006907277813 0.005604499048 1.554717556e-25)
(-0.01195231944 0.007008205654 -8.494381285e-25)
(-0.01713504275 0.007553774436 1.161983039e-24)
(-0.0219753516 0.007294198512 1.306723031e-23)
(-0.02611075729 0.006321893531 1.390134769e-24)
(-0.02926564339 0.004754192951 -7.2838918e-24)
(-0.03122672609 0.002737152072 1.015345743e-23)
(-0.03184200589 0.000452406553 4.510225637e-24)
(-0.03102761067 -0.001884143628 -6.319134706e-24)
(-0.02879316292 -0.004023028217 2.961714836e-24)
(-0.02527138103 -0.005708353156 3.895630307e-23)
(-0.02073194721 -0.006707408324 -1.95482524e-24)
(-0.01558962567 -0.00685413935 3.754591281e-24)
(-0.01038513392 -0.006097464168 -9.74134539e-23)
(-0.005730272404 -0.004546187091 9.63803693e-23)
(-0.002233367296 -0.002507419993 -3.961824794e-25)
(-0.000181776031 -0.0005023731397 4.061742691e-25)
(8.34348735e-05 0.0006099252271 0)
(-0.000418823968 0.002935077266 -2.91074354e-25)
(-0.004647875807 0.008804011884 1.702505066e-23)
(-0.01137196035 0.01324042039 -8.279516049e-24)
(-0.01932728974 0.01579203775 -2.0748586e-25)
(-0.02747411412 0.01652999739 2.038331546e-25)
(-0.03511778344 0.01564441411 6.877123423e-27)
(-0.04171344161 0.01335997376 -1.222559279e-24)
(-0.04683570951 0.009919769436 -4.552655062e-25)
(-0.05014988122 0.005602432533 -1.063169314e-23)
(-0.05141231133 0.0007444207862 0)
(-0.0504779256 -0.004241779289 0)
(-0.04733705673 -0.008887185126 2.671107821e-23)
(-0.04215927412 -0.01268176706 2.813115393e-23)
(-0.03531437048 -0.01513604926 -1.6462237e-24)
(-0.02738996006 -0.01586189337 4.846064464e-23)
(-0.01917005751 -0.01467334012 9.419637527e-23)
(-0.0115609069 -0.01169360314 3.976082726e-23)
(-0.00546541206 -0.007450743287 4.143148797e-25)
(-0.00145110008 -0.002936044339 1.073108763e-25)
(-9.072763323e-05 0.0002258763627 0)
(-0.000502463477 0.006045348185 -4.249294441e-23)
(-0.006402739927 0.01637075143 -1.692728414e-23)
(-0.01553502299 0.0235593302 8.206365946e-24)
(-0.02627911741 0.02744162029 0)
(-0.03728746256 0.02832101641 0)
(-0.04769036787 0.0265877209 0)
(-0.05679662152 0.02263119996 -4.473035189e-26)
(-0.06405383012 0.01683609066 -2.135709136e-24)
(-0.06901080416 0.009622182846 0)
(-0.07130826793 0.001491050534 1.635676545e-24)
(-0.07070852509 -0.006936502019 2.802911779e-25)
(-0.06713038533 -0.01493018556 -2.810759863e-25)
(-0.06069904873 -0.02166727809 0)
(-0.05180749948 -0.02631605385 4.133463805e-23)
(-0.04114991234 -0.0281607052 -4.681771189e-23)
(-0.02971969924 -0.02677371937 -2.762140896e-23)
(-0.01873716516 -0.02221530317 -3.961234753e-23)
(-0.009488027894 -0.01521922104 7.795906306e-25)
(-0.002976880257 -0.007298194862 9.789933505e-23)
(-0.0002318800328 -0.0008661684161 0)
(-0.0005316133385 0.01009501381 4.269958069e-23)
(-0.007983592165 0.02595219019 4.784641649e-25)
(-0.01939687232 0.03642882091 -4.675361989e-25)
(-0.03282381986 0.04185519891 0)
(-0.04664688313 0.04289484442 7.782236579e-25)
(-0.05985228775 0.04020073364 -7.67433307e-25)
(-0.07163290307 0.03434741164 3.672081186e-23)
(-0.08132750027 0.0258566377 1.847995439e-23)
(-0.08836599747 0.01527298233 6.238295306e-24)
(-0.09225468166 0.003246148025 -1.637582136e-24)
(-0.09260378448 -0.009407829508 0)
(-0.08917554281 -0.02167477567 4.370925682e-25)
(-0.08195978184 -0.03236744497 1.009112933e-23)
(-0.07126884558 -0.04021249538 -4.349507951e-23)
(-0.0578201813 -0.04402045762 1.93301987e-24)
(-0.04278582474 -0.04294828872 4.217663353e-23)
(-0.02775450028 -0.03683346572 -3.842396341e-25)
(-0.01455062172 -0.02652720773 0)
(-0.004859462073 -0.01408454433 5.436541686e-23)
(-0.0003641484153 -0.00284695352 -2.565033522e-22)
(-0.0005272210538 0.01499927406 9.841054002e-23)
(-0.009377924142 0.03739021553 -4.907416814e-25)
(-0.0228818246 0.05170222024 0)
(-0.03883042965 0.05894182042 0)
(-0.05538655961 0.06025573557 -8.731893511e-23)
(-0.07142875626 0.05661900115 -8.498869341e-23)
(-0.08606652909 0.04880168031 -4.067315795e-23)
(-0.09855084609 0.03743980037 -1.504266384e-23)
(-0.1081945163 0.02315983781 -5.368400228e-24)
(-0.1143444576 0.006709680442 -8.174718555e-24)
(-0.1164046057 -0.01093291754 6.60082606e-24)
(-0.1138937256 -0.02848944403 8.826152921e-24)
(-0.1065486849 -0.04437045443 -1.892316426e-23)
(-0.09446802919 -0.05675332863 4.60546487e-24)
(-0.07826855984 -0.06378297767 0)
(-0.05922894751 -0.06393494618 -1.57308621e-23)
(-0.0393398145 -0.05653815651 -2.422341469e-26)
(-0.02114188569 -0.04235808714 0)
(-0.007318701921 -0.02398229235 -1.52060334e-22)
(-0.0005216164194 -0.005925544797 6.056180312e-22)
(-0.0004990819806 0.02064574135 -9.774010342e-23)
(-0.01052950829 0.0504543717 2.83193648e-22)
(-0.02582957103 0.06912510413 1.5268385e-22)
(-0.04402137728 0.07849256524 3.619213739e-24)
(-0.06310738338 0.08029475069 -7.319353992e-23)
(-0.08190403987 0.07588041717 9.043311266e-23)
(-0.09947762344 0.06621689732 -3.590147407e-24)
(-0.1150227225 0.05201694407 -1.729137592e-24)
(-0.1277519016 0.03392358193 2.524112099e-24)
(-0.1368472432 0.01270233278 7.382369518e-24)
(-0.1414710353 -0.01058781865 -6.500590645e-24)
(-0.1408248019 -0.03446023586 -9.787522595e-24)
(-0.1342745819 -0.05692770678 -3.261741777e-23)
(-0.1215450108 -0.07553315037 -3.66114725e-23)
(-0.1029672548 -0.0875425934 5.645264761e-25)
(-0.07976369067 -0.09039208516 0)
(-0.05426681913 -0.08244512784 0)
(-0.0298716062 -0.06397736186 -2.90599549e-24)
(-0.01066285026 -0.0379879438 2.970443187e-24)
(-0.0007350935397 -0.01050089425 1.027872229e-22)
(-0.000447916376 0.02687250628 0)
(-0.01134923078 0.06480756324 2.001981383e-22)
(-0.02801599339 0.08829615653 8.962053935e-23)
(-0.04799856784 0.1001234774 0)
(-0.06920601211 0.1027076388 1.569863215e-22)
(-0.09044372192 0.09781577182 0)
(-0.110783156 0.086611019 -1.42837845e-22)
(-0.1294093627 0.06983949593 6.515499871e-24)
(-0.1454771488 0.04808231841 0)
(-0.1580351659 0.02201755645 0)
(-0.1660133301 -0.007334434812 -1.374395353e-24)
(-0.1682671407 -0.03838838853 -9.316611707e-25)
(-0.1637064555 -0.0688397466 1.491958951e-22)
(-0.1515208633 -0.09558274337 -4.704636964e-23)
(-0.1315134445 -0.1148298507 -2.560905914e-24)
(-0.1045595988 -0.1225703264 1.53466366e-24)
(-0.07309349265 -0.1155517838 -1.558871879e-24)
(-0.04135021123 -0.0928311463 0)
(-0.01525230134 -0.05740767119 3.203778233e-24)
(-0.001044308938 -0.01714714349 -1.012905443e-21)
(-0.0003744665149 0.03346303929 0)
(-0.01175005949 0.07998917365 -1.128268196e-22)
(-0.02920707647 0.1086390762 -6.191107968e-22)
(-0.05031744562 0.1232233794 -3.75528623e-22)
(-0.07296316805 0.1269096844 0)
(-0.09598959392 0.1219255473 4.11943674e-22)
(-0.1185273389 0.1096348511 1.260916262e-22)
(-0.1398146314 0.09078244977 -5.581806419e-24)
(-0.1590221436 0.06581392729 5.554179476e-24)
(-0.1751460885 0.03520881137 0)
(-0.1869559865 -0.0001967421258 2.912118825e-23)
(-0.193017253 -0.03889753407 4.695808512e-24)
(-0.1917809799 -0.07843887233 -1.07679841e-22)
(-0.1817874329 -0.1151865221 8.004108456e-23)
(-0.1620570339 -0.1442599293 -2.419725962e-22)
(-0.132706192 -0.1598548457 0)
(-0.09577887544 -0.1563112731 0)
(-0.05601632673 -0.1302980962 0)
(-0.02147858976 -0.08381134378 0)
(-0.001500384453 -0.02665516084 5.5720735e-22)
(-0.0002873900488 0.04016077106 0)
(-0.01169359563 0.0954361004 -3.492996522e-22)
(-0.0292443812 0.1294073431 8.932759138e-22)
(-0.05060946987 0.1469298954 3.617159183e-22)
(-0.07370082221 0.1519748466 0)
(-0.09745150586 0.1472757779 -3.862535749e-22)
(-0.1211069773 0.1344191806 -3.174418342e-23)
(-0.1440324715 0.1141393221 3.33309541e-22)
(-0.1655143161 0.08670006136 1.769470046e-22)
(-0.1846248445 0.05229123517 -4.060142041e-23)
(-0.2001325733 0.01141716693 1.656821772e-23)
(-0.2104622365 -0.03471423209 -8.265218582e-24)
(-0.213720845 -0.08376562294 3.371848557e-22)
(-0.2078215421 -0.1318756187 0)
(-0.1908238461 -0.1732755956 2.420894978e-22)
(-0.1616335669 -0.2002593205 5.774713681e-24)
(-0.1211662633 -0.2040121529 -5.860831743e-24)
(-0.07384989415 -0.1772119808 1.548426633e-22)
(-0.02971786653 -0.1188642231 -5.43539408e-24)
(-0.00217954497 -0.04005398429 0)
(-0.0002117200058 0.04671639369 0)
(-0.01125001086 0.1105497974 0)
(-0.02815624425 0.14973548 -5.02273767e-22)
(-0.04874479228 0.1701517382 -1.880991739e-23)
(-0.07100086511 0.1766256932 2.038372263e-23)
(-0.09399451322 0.1724526324 -2.014304836e-23)
(-0.1171434279 0.1594870841 -2.316877518e-23)
(-0.1400179481 0.1384804983 -3.029814834e-22)
(-0.1621328866 0.1095160667 6.698612659e-23)
(-0.1827959013 0.0724518699 4.513166444e-23)
(-0.2009835532 0.02734929343 -4.577709095e-23)
(-0.2152270239 -0.02508696836 0)
(-0.2235562186 -0.08298350075 -7.839634913e-23)
(-0.2234632167 -0.1427257174 0)
(-0.2120679397 -0.1981820702 -3.73955218e-22)
(-0.186743451 -0.2400773505 5.244934289e-22)
(-0.1464438266 -0.2560773224 0)
(-0.09394567423 -0.2331209341 -1.493973391e-22)
(-0.0402200083 -0.1639613546 1.937529335e-22)
(-0.003201100082 -0.05861062736 -3.411508912e-22)
(-0.0002015410482 0.05297584495 0)
(-0.01067261949 0.124817224 9.182849905e-22)
(-0.02628446812 0.1687424381 -2.440679466e-23)
(-0.04501108005 0.1916454921 9.193319559e-22)
(-0.06494597746 0.1992920842 -2.512080485e-23)
(-0.0853662883 0.1956104134 2.838838248e-23)
(-0.1059305683 0.1827886701 -2.812924363e-23)
(-0.1264924226 0.1616583415 -1.660915092e-23)
(-0.146899689 0.1321762256 -5.260220422e-22)
(-0.1668458203 0.09389646684 -8.906614323e-24)
(-0.1857303073 0.04640576789 9.660182035e-24)
(-0.2024781734 -0.01023783882 3.31307378e-22)
(-0.2154154658 -0.07499819163 -5.820731393e-22)
(-0.2220209752 -0.1450311697 0)
(-0.2188032127 -0.2146760457 8.887305151e-22)
(-0.2016257532 -0.2740016248 -4.940868126e-22)
(-0.1668639186 -0.3075811776 -1.57221709e-23)
(-0.1140220079 -0.2953811744 0)
(-0.05288481897 -0.2195802453 -1.890163388e-22)
(-0.004749187975 -0.08377277461 3.36056705e-22)
(-0.0003641987441 0.05902317231 1.551007428e-23)
(-0.01049574097 0.1379881366 -8.764178472e-22)
(-0.02441389849 0.1856803915 -1.157057188e-21)
(-0.04026724899 0.2101384544 -8.628969654e-22)
(-0.05630730222 0.2182348711 0)
(-0.07214857291 0.2146190097 3.513799674e-23)
(-0.08779222476 0.2018791826 -7.294855316e-23)
(-0.1034562887 0.1810005529 5.867876184e-23)
(-0.1193983979 0.1518997211 3.02136247e-22)
(-0.135793166 0.1139150584 -1.128194368e-23)
(-0.1526082439 0.06621425488 0)
(-0.1694521495 0.008177211876 -3.603925423e-22)
(-0.1852760713 -0.06015986619 7.515660272e-22)
(-0.1980448622 -0.1372746887 8.831694977e-22)
(-0.204354635 -0.2189261749 -5.296618279e-22)
(-0.1990977674 -0.2959712762 5.162680641e-22)
(-0.1760605364 -0.3514072429 1.078226886e-23)
(-0.1300890641 -0.3584150626 -1.09554183e-23)
(-0.06688803271 -0.2843276383 -8.215533046e-23)
(-0.007083319798 -0.1169964362 0)
(-0.0009095778901 0.06540041119 -1.911484006e-23)
(-0.01167591942 0.1502816295 -1.326963778e-21)
(-0.02388882535 0.2000659395 1.094235692e-21)
(-0.0360134113 0.224421678 6.734920774e-22)
(-0.04657309673 0.2316588063 6.014623623e-22)
(-0.05577039624 0.2272393542 6.643948188e-22)
(-0.06411247034 0.2141774763 -4.458671956e-23)
(-0.07227563065 0.1936494315 -3.461333255e-22)
(-0.08096974475 0.1656028298 2.152160204e-22)
(-0.09087193915 0.1292707377 0)
(-0.1025547616 0.08353083034 0)
(-0.1163622319 0.02720011533 2.655394731e-22)
(-0.1321589716 -0.04062005045 8.19432653e-23)
(-0.1489252463 -0.1200128202 -2.821619587e-22)
(-0.1641284408 -0.2089300577 -5.411266151e-23)
(-0.1727877719 -0.3006992386 1.301951491e-22)
(-0.1670311373 -0.3793328972 -3.400494601e-22)
(-0.1365292473 -0.4136451834 -1.59394784e-23)
(-0.08018250216 -0.3538326084 8.204305429e-23)
(-0.0105076229 -0.1594130511 -6.032182007e-22)
(-0.002260498721 0.07348883222 0)
(-0.01580355932 0.1626521683 2.145871837e-21)
(-0.02665043179 0.2117904604 0)
(-0.03422340534 0.2333947116 -1.351806173e-21)
(-0.03759399718 0.2377766672 6.184056602e-23)
(-0.03799686725 0.231255339 -6.193086362e-22)
(-0.03668267577 0.2171898912 -4.756278712e-22)
(-0.03489038166 0.1968934438 8.301245547e-22)
(-0.03378839838 0.1703342372 -1.885696076e-22)
(-0.03449878407 0.1367221103 0)
(-0.03811574675 0.09479674197 0)
(-0.04564994342 0.04304287364 2.41061605e-23)
(-0.0579080613 -0.0201378034 -6.007193566e-22)
(-0.07514600248 -0.09620649298 -4.309563129e-22)
(-0.09645176509 -0.1855556083 4.637858056e-22)
(-0.1183462743 -0.2853567682 -6.488725396e-22)
(-0.1332715476 -0.383838644 9.119938545e-23)
(-0.1265351044 -0.4504358614 2.93743933e-23)
(-0.08899154277 -0.4198536277 5.66045479e-22)
(-0.01526917942 -0.2111719677 6.020814707e-22)
(-0.005180899789 0.08598045814 0)
(-0.02525551001 0.1766291134 1.465579428e-22)
(-0.03483408643 0.2205961457 -4.917138815e-23)
(-0.03640014903 0.2354859229 7.64292089e-22)
(-0.03018484414 0.234340663 -7.005368863e-22)
(-0.0191658108 0.2241603775 4.746475049e-23)
(-0.005615168601 0.2083525764 -1.018608757e-22)
(0.008569588117 0.1881241043 -3.389884784e-22)
(0.02179884128 0.1633911261 2.062820711e-22)
(0.03262779426 0.1333242757 0)
(0.0395845657 0.09664086686 0)
(0.04117011379 0.05174057112 -2.902665364e-22)
(0.03578482074 -0.003255390461 0)
(0.0219818309 -0.07058360107 -5.512182471e-22)
(-0.001264860127 -0.1525735439 -1.492376396e-23)
(-0.03310471066 -0.2505949785 2.559734603e-23)
(-0.06909236766 -0.3599341456 2.203132267e-22)
(-0.09227827626 -0.4575424467 4.788155174e-24)
(-0.08718090176 -0.4698129348 -5.789423945e-22)
(-0.02103127175 -0.2698972253 0)
(-0.01111631565 0.1085974974 0)
(-0.04248902107 0.1947151649 -8.848469871e-22)
(-0.04795529516 0.2258195452 -5.411034413e-22)
(-0.03919536898 0.2282135476 4.543811536e-22)
(-0.0187783159 0.2182328048 -1.709983724e-24)
(0.007664297993 0.2028220276 -4.561044001e-23)
(0.03667991594 0.1847619708 5.696675009e-22)
(0.06582996655 0.164711818 -2.766887493e-23)
(0.09327128917 0.142312817 -2.069779586e-22)
(0.1173891413 0.1166274957 3.142210557e-23)
(0.1365461502 0.08641144273 -3.4259142e-23)
(0.1489669096 0.05017669545 -3.690591189e-23)
(0.1525275626 0.006159172678 3.205630918e-22)
(0.1449366896 -0.04796126468 6.119601046e-22)
(0.1235159673 -0.115305286 -5.101166386e-22)
(0.08633532454 -0.2004195609 -1.616053428e-22)
(0.03199088429 -0.3067806559 1.53131288e-22)
(-0.02362123774 -0.4239837112 7.293659602e-23)
(-0.06492413305 -0.4871612752 1.913292657e-21)
(-0.02509971738 -0.3291544715 2.954992644e-21)
(-0.02004680466 0.1460727412 -4.390204535e-23)
(-0.06416406366 0.2112955853 4.417377265e-23)
(-0.05070230928 0.2177300455 1.000187633e-21)
(-0.01934097988 0.2014679943 -8.270567181e-24)
(0.02414464 0.180907613 0)
(0.07154120846 0.16069333 4.36371654e-23)
(0.1190703262 0.1416495454 -2.27384909e-22)
(0.1644767173 0.1233181797 -9.027945686e-23)
(0.2062250994 0.1048117287 3.680730279e-23)
(0.2429642861 0.08507140178 -1.701653497e-23)
(0.2732207427 0.06296147906 3.429967505e-23)
(0.2952535973 0.03726294144 -6.592675506e-23)
(0.3066970941 0.006535071797 -9.303900018e-23)
(0.3049738211 -0.03087769693 1.517042433e-22)
(0.2863936166 -0.07786290672 0)
(0.2470568017 -0.1399300348 1.50560584e-22)
(0.1810922181 -0.2266299742 2.560014568e-22)
(0.09604449829 -0.3443894934 0)
(-0.006697618027 -0.4552210204 -3.675636548e-21)
(-0.01922408237 -0.3777537575 -2.892622078e-21)
(-0.02591951308 0.2276828809 -9.514202274e-22)
(-0.03998324612 0.2238216534 -1.388975525e-22)
(0.03656136828 0.1810585355 -2.335579621e-22)
(0.1090503025 0.1451059079 -1.19374107e-22)
(0.1817191153 0.1172445476 -4.295820583e-23)
(0.2490090669 0.09627907419 9.78316517e-23)
(0.3100336619 0.08002510234 -1.408590054e-22)
(0.3646209234 0.06656815215 1.297173678e-22)
(0.4126252387 0.05449178849 -8.620110958e-23)
(0.4536250193 0.04270894962 1.132189395e-25)
(0.4867878623 0.0303229852 1.527740389e-23)
(0.5107451276 0.01652902001 7.997198133e-23)
(0.5236597383 0.0005365158711 -1.811122213e-22)
(0.5231797957 -0.01863373102 -1.617144568e-22)
(0.5052323378 -0.04286478836 -4.262942681e-23)
(0.4658715051 -0.07633231107 0)
(0.3952696475 -0.1286089381 -1.846480649e-22)
(0.291607103 -0.2208468097 8.148766697e-22)
(0.1197455095 -0.3525016901 1.631602118e-21)
(0.02670547232 -0.3775497977 2.172656178e-21)
(0.2142894471 0.134744721 9.864986982e-22)
(0.2776311191 0.0987050358 0)
(0.4316592296 0.05810414849 -2.594318624e-22)
(0.5304749349 0.03846264958 -1.741664405e-22)
(0.6016965746 0.02623419105 0)
(0.6571198943 0.01831923457 -6.009081517e-23)
(0.7015213577 0.0131360083 6.377991114e-23)
(0.7376042465 0.009542126235 -1.800153901e-23)
(0.7669368377 0.006804463591 2.885970231e-23)
(0.7902106645 0.004464743974 2.315030518e-23)
(0.8074554973 0.00222132 0)
(0.8182621324 -0.0001500747844 -2.873030244e-23)
(0.8216499693 -0.002723848068 0)
(0.8162394183 -0.005712668482 2.738145352e-23)
(0.7991333142 -0.009611382724 1.421686206e-23)
(0.7679986344 -0.01500255103 -5.799409474e-23)
(0.7106555755 -0.02502519959 -2.535662835e-22)
(0.623518398 -0.04204285414 -6.918104315e-22)
(0.423009102 -0.09182968088 0)
(0.2705674689 -0.1524021841 -2.119484036e-21)
)
;

boundaryField
{
    movingWall
    {
        type            fixedValue;
        value           uniform (1 0 0);
    }
    fixedWalls
    {
        type            fixedValue;
        value           uniform (0 0 0);
    }
    frontAndBack
    {
        type            empty;
    }
}


// ************************************************************************* //
