/*--------------------------------*- C++ -*----------------------------------*\
  =========                 |
  \\      /  F ield         | OpenFOAM: The Open Source CFD Toolbox
   \\    /   O peration     | Website:  https://openfoam.org
    \\  /    A nd           | Version:  13
     \\/     M anipulation  |
\*---------------------------------------------------------------------------*/
FoamFile
{
    format      ascii;
    class       volVectorField;
    location    "38";
    object      U_0;
}
// * * * * * * * * * * * * * * * * * * * * * * * * * * * * * * * * * * * * * //

dimensions      [0 1 -1 0 0 0 0];

internalField   nonuniform List<vector> 
400
(
(0.0001814477275 -0.0001853059911 0)
(-0.0001395130224 3.107816347e-05 0)
(-0.001532141263 0.0002686510323 0)
(-0.003778177761 0.0004193798951 0)
(-0.006530756864 0.0004989961809 0)
(-0.00948926666 0.0005292099817 0)
(-0.01240433332 0.0005198039192 0)
(-0.01504308258 0.0004697470203 0)
(-0.0171658496 0.0003723374485 0)
(-0.01852679836 0.0002222452344 0)
(-0.01890110768 2.27162328e-05 0)
(-0.01813417454 -0.0002088991848 0)
(-0.01620075453 -0.0004387498394 0)
(-0.0132556702 -0.0006204346241 0)
(-0.009654048277 -0.0007054759434 0)
(-0.005920750249 -0.0006589743905 0)
(-0.002660407334 -0.0004746614932 0)
(-0.0004136401931 -0.0001829179864 0)
(0.0005350101466 0.0001354779049 0)
(0.0003081102384 0.0003011645358 0)
(-4.803690279e-05 0.0001384045953 0)
(-0.002072927413 0.001927685667 0)
(-0.006412292992 0.003748738704 0)
(-0.01254092206 0.005007759641 0)
(-0.01970336436 0.005670252151 0)
(-0.02723055216 0.005812431001 0)
(-0.03451930019 0.005484953531 0)
(-0.04098949693 0.004694387548 0)
(-0.04606345469 0.003431132162 0)
(-0.04918488319 0.001714568209 0)
(-0.04988241141 -0.000363045945 0)
(-0.0478666111 -0.002608193622 0)
(-0.04313792466 -0.004725022043 0)
(-0.0360732404 -0.006351791959 0)
(-0.02745421702 -0.007136756998 0)
(-0.0184034111 -0.006842967256 0)
(-0.01020698412 -0.005454542412 0)
(-0.004032260179 -0.003251818892 0)
(-0.000580597278 -0.0008641941655 0)
(0.0002197799517 0.0005841262239 0)
(-0.000352823499 0.001713232569 0)
(-0.004468967158 0.006444511806 0)
(-0.01182491789 0.01063696221 0)
(-0.02151785315 0.01347180033 0)
(-0.03245519607 0.01490024422 0)
(-0.04372763612 0.01504950046 0)
(-0.05449938525 0.01400897956 0)
(-0.06395689441 0.01180131471 0)
(-0.07130074183 0.008439969524 0)
(-0.07578144876 0.004019226864 0)
(-0.07678120794 -0.001201716778 0)
(-0.07392892492 -0.006748664628 0)
(-0.06722537724 -0.0119383046 0)
(-0.05714789045 -0.01595657807 0)
(-0.04469665782 -0.01801610233 0)
(-0.03133911196 -0.01757720132 0)
(-0.01881188891 -0.0145829417 0)
(-0.008778147993 -0.009632469381 0)
(-0.002418305808 -0.00405482081 0)
(3.363624651e-05 1.731921782e-05 0)
(-0.0006289858778 0.004578927328 0)
(-0.006782202822 0.01362435235 0)
(-0.01703196401 0.02084528749 0)
(-0.03002969538 0.02553670268 0)
(-0.04434349782 0.02776311393 0)
(-0.05888382028 0.02774282236 0)
(-0.07266927593 0.02561522392 0)
(-0.08474555114 0.02142693515 0)
(-0.09417646172 0.01522980994 0)
(-0.100082205 0.007218730334 0)
(-0.1017220568 -0.002144143143 0)
(-0.09861137034 -0.01205631158 0)
(-0.09065748106 -0.02138088431 0)
(-0.07829331019 -0.02875802774 0)
(-0.06257407361 -0.03283893749 0)
(-0.04518124562 -0.03263702544 0)
(-0.02826008949 -0.02793371775 0)
(-0.01405415981 -0.01960572357 0)
(-0.004425533364 -0.009736672275 0)
(-0.0001265055503 -0.001522705297 0)
(-0.0008669115362 0.008619735357 0)
(-0.008852198216 0.02324115011 0)
(-0.0217302947 0.03404569178 0)
(-0.03771462562 0.04076655909 0)
(-0.05505512265 0.0437542815 0)
(-0.07252689647 0.04339394778 0)
(-0.08906909675 0.03990179863 0)
(-0.103659077 0.03335436018 0)
(-0.1152854635 0.02383827243 0)
(-0.1229711551 0.01163793698 0)
(-0.1258407977 -0.002598688925 0)
(-0.1232286076 -0.01775513857 0)
(-0.1148251237 -0.03223196216 0)
(-0.100855865 -0.04406113631 0)
(-0.08226427277 -0.05119037837 0)
(-0.06083235766 -0.05196527108 0)
(-0.0391205307 -0.0457584458 0)
(-0.02012133107 -0.03355377937 0)
(-0.006668994788 -0.01818974042 0)
(-0.0002726765928 -0.004093322999 0)
(-0.001063101179 0.01367638415 0)
(-0.01059935601 0.03499580125 0)
(-0.02573114348 0.04988921496 0)
(-0.04429331632 0.05879979016 0)
(-0.06426949571 0.06253697117 0)
(-0.08434722084 0.06174394597 0)
(-0.1034439347 0.05675085851 0)
(-0.1205303507 0.04766652442 0)
(-0.1345717066 0.03458851373 0)
(-0.1445197321 0.01784289648 0)
(-0.1493500326 -0.001803297035 0)
(-0.1481494651 -0.02298836504 0)
(-0.1402686493 -0.0436912272 0)
(-0.1255512122 -0.06129876891 0)
(-0.1046277573 -0.0728920972 0)
(-0.07920903256 -0.07583798372 0)
(-0.05221925473 -0.06869483677 0)
(-0.02756399432 -0.0522162583 0)
(-0.009430187845 -0.02994056023 0)
(-0.0004476731662 -0.007844496804 0)
(-0.00121016181 0.01955857392 0)
(-0.01195047057 0.04850888301 0)
(-0.02885937021 0.06793264909 0)
(-0.04947846375 0.079198694 0)
(-0.07159470462 0.08372896118 0)
(-0.09385857429 0.08251746328 0)
(-0.1152199055 0.07605012523 0)
(-0.1347014868 0.06446795004 0)
(-0.1513001824 0.04784073297 0)
(-0.1639362089 0.0264598842 0)
(-0.1714470884 0.001103055364 0)
(-0.1726425172 -0.0267461896 0)
(-0.1664440771 -0.05474402333 0)
(-0.1521480108 -0.07965030808 0)
(-0.1298312674 -0.09753811932 0)
(-0.1008548002 -0.1044263297 0)
(-0.0683017589 -0.09747553194 0)
(-0.03704499075 -0.07660982754 0)
(-0.01307045221 -0.04583977251 0)
(-0.0007028605297 -0.01310534241 0)
(-0.001299537736 0.02603796104 0)
(-0.01283464943 0.06331436902 0)
(-0.03094413404 0.08761659021 0)
(-0.0529686592 0.101392579 0)
(-0.07657175998 0.1068033412 0)
(-0.1004146578 0.1052822293 0)
(-0.1235299353 0.09751719304 0)
(-0.1450517843 0.08368439534 0)
(-0.1640748848 0.06378356128 0)
(-0.1795558662 0.03798170735 0)
(-0.1902553839 0.006931579181 0)
(-0.1947407086 -0.0279312541 0)
(-0.1914854716 -0.06411192413 0)
(-0.1791253897 -0.09785946256 0)
(-0.1569328239 -0.1241938719 0)
(-0.1255274582 -0.1374425623 0)
(-0.08771760746 -0.1326338385 0)
(-0.04914192113 -0.1078885237 0)
(-0.01798523637 -0.06705928959 0)
(-0.001101354966 -0.02040922196 0)
(-0.00132653326 0.03285187906 0)
(-0.01320530533 0.07886803109 0)
(-0.03185508012 0.108264631 0)
(-0.05449937422 0.1246519272 0)
(-0.07874369862 0.1310279781 0)
(-0.1033005579 0.1293498682 0)
(-0.1273306109 0.1205615735 0)
(-0.1501394782 0.1048894053 0)
(-0.1709987061 0.08223267831 0)
(-0.1890016671 0.05255199341 0)
(-0.2029507023 0.01623575425 0)
(-0.2112919768 -0.0255266709 0)
(-0.2121394525 -0.07033688386 0)
(-0.2034589502 -0.114184661 0)
(-0.1835259919 -0.1511766085 0)
(-0.1517717687 -0.1737680603 0)
(-0.1100526033 -0.1740916755 0)
(-0.06415744364 -0.1470640208 0)
(-0.0245745851 -0.0950140405 0)
(-0.0017261844 -0.03050712878 0)
(-0.001297688083 0.03972561746 0)
(-0.01307859956 0.0945798869 0)
(-0.03156981678 0.1291033114 0)
(-0.05393833011 0.1480830048 0)
(-0.07778220044 0.1554296477 0)
(-0.1018994922 0.153707971 0)
(-0.1256205243 0.144183649 0)
(-0.1484812683 0.127168526 0)
(-0.1700160474 0.1024586708 0)
(-0.1895783582 0.06975751675 0)
(-0.2061790912 0.02907515118 0)
(-0.2183463835 -0.0188441466 0)
(-0.2240464751 -0.07199773455 0)
(-0.2207220232 -0.1265118757 0)
(-0.2056124605 -0.1759744932 0)
(-0.1765843436 -0.2111186063 0)
(-0.133717288 -0.2206338996 0)
(-0.08184216709 -0.1945323743 0)
(-0.03318781021 -0.1311724947 0)
(-0.002691129889 -0.04437547962 0)
(-0.001240664889 0.04642052212 0)
(-0.01258503586 0.1098829331 0)
(-0.03026293481 0.1493150504 0)
(-0.05140911974 0.1706549603 0)
(-0.07365015482 0.1787980383 0)
(-0.09590872607 0.1770058271 0)
(-0.1177307512 0.166943111 0)
(-0.1389398851 0.1490649539 0)
(-0.159414553 0.1230972314 0)
(-0.178891559 0.08848448497 0)
(-0.1967736492 0.04480044916 0)
(-0.2119209961 -0.007809204365 0)
(-0.2224687535 -0.06805880948 0)
(-0.2256600223 -0.1326870633 0)
(-0.2179024937 -0.1954295437 0)
(-0.1953670266 -0.2459176474 0)
(-0.1556081701 -0.269402824 0)
(-0.1010179511 -0.2494107648 0)
(-0.04399613363 -0.1766923551 0)
(-0.004150739509 -0.06320551918 0)
(-0.001217732967 0.05281590902 0)
(-0.01203397641 0.1243458903 0)
(-0.02840603838 0.1681279979 0)
(-0.04741784465 0.1912622425 0)
(-0.06675835887 0.1997357189 0)
(-0.08554419835 0.1976068915 0)
(-0.103605023 0.187019871 0)
(-0.1211117225 0.1686419348 0)
(-0.1383510439 0.1421910328 0)
(-0.155534434 0.1069020089 0)
(-0.1726041335 0.06192535859 0)
(-0.1890081921 0.006737997822 0)
(-0.2033870803 -0.05830582478 0)
(-0.2132384595 -0.1310673856 0)
(-0.2146494892 -0.2062734721 0)
(-0.2023691616 -0.2735753357 0)
(-0.1710599683 -0.3156599406 0)
(-0.119192037 -0.3088024138 0)
(-0.05674592898 -0.2318085709 0)
(-0.006302841484 -0.08834339598 0)
(-0.001347369752 0.05903770183 0)
(-0.01199762604 0.1378314102 0)
(-0.02686863738 0.1849303822 0)
(-0.04294760563 0.2088041016 0)
(-0.05805345802 0.2167360979 0)
(-0.0716398884 0.2136928026 0)
(-0.08393740326 0.2023570925 0)
(-0.0955345555 0.1836610434 0)
(-0.1071665159 0.1573811297 0)
(-0.1195569801 0.1226251176 0)
(-0.1332571549 0.07820454434 0)
(-0.148434103 0.02297561969 0)
(-0.1645430639 -0.04369856611 0)
(-0.1798583191 -0.1211656269 0)
(-0.1908558887 -0.2059738515 0)
(-0.1916352426 -0.2892791819 0)
(-0.1742742978 -0.353091732 0)
(-0.1323626269 -0.3672681418 0)
(-0.07037320572 -0.2949413928 0)
(-0.009369492931 -0.1211078782 0)
(-0.001844894764 0.06565675718 0)
(-0.01342981965 0.1506918184 0)
(-0.02700278693 0.1993712227 0)
(-0.03946060772 0.222232467 0)
(-0.04893627545 0.2282389472 0)
(-0.05550163204 0.2233653096 0)
(-0.05998135032 0.2108265241 0)
(-0.06346958154 0.1918121024 0)
(-0.06716331398 0.1661883408 0)
(-0.07227058419 0.1330165037 0)
(-0.07991689685 0.09089878061 0)
(-0.09100053132 0.03823232487 0)
(-0.1059296717 -0.02649566313 0)
(-0.1241517377 -0.1041505697 0)
(-0.1433332155 -0.1936557421 0)
(-0.1581151301 -0.2891818589 0)
(-0.1591363944 -0.3747945575 0)
(-0.1351705001 -0.4168821257 0)
(-0.08252286724 -0.3616541453 0)
(-0.01350531239 -0.1623262038 0)
(-0.003082462022 0.07398166412 0)
(-0.01781384423 0.1639693174 0)
(-0.03062556139 0.2113624391 0)
(-0.0386297558 0.2304741921 0)
(-0.0407611894 0.2325733025 0)
(-0.03821734707 0.2246522632 0)
(-0.03269826322 0.2103095338 0)
(-0.0259018406 0.1908725567 0)
(-0.01947280934 0.1662536863 0)
(-0.0150220655 0.1355066984 0)
(-0.01413154584 0.0971513971 0)
(-0.01831224245 0.04934999114 0)
(-0.02886807479 -0.009967542314 0)
(-0.04656423186 -0.08286963498 0)
(-0.07086172493 -0.1706593046 0)
(-0.09827797138 -0.2715615807 0)
(-0.1199414481 -0.3747293973 0)
(-0.1212383161 -0.4481329826 0)
(-0.08904271419 -0.4239911423 0)
(-0.01848819593 -0.2115288573 0)
(-0.005577054637 0.08655513941 0)
(-0.02714963498 0.179488636 0)
(-0.03946332099 0.2207177256 0)
(-0.04111050606 0.2319698462 0)
(-0.0330716385 0.2275762743 0)
(-0.01852137688 0.2152421132 0)
(-0.0003634166722 0.1985403445 0)
(0.01904173063 0.1786552443 0)
(0.03766720171 0.155403468 0)
(0.05363026327 0.1278101519 0)
(0.0650632268 0.09440569987 0)
(0.07004121636 0.05334233635 0)
(0.06657591902 0.002394630932 0)
(0.05274124098 -0.06110947236 0)
(0.02713876301 -0.1402136534 0)
(-0.009610308887 -0.2372670203 0)
(-0.05144082532 -0.3489614378 0)
(-0.08326992507 -0.4513798835 0)
(-0.0834937862 -0.4709375159 0)
(-0.02311574821 -0.2665864416 0)
(-0.009893334322 0.1087243064 0)
(-0.04299145284 0.1995635219 0)
(-0.05224019024 0.2256907418 0)
(-0.04181314753 0.2232041031 0)
(-0.01790156136 0.2094754336 0)
(0.01323179656 0.1917237184 0)
(0.04741487441 0.1726384611 0)
(0.08181818611 0.152778995 0)
(0.1142774444 0.1316303199 0)
(0.1428889113 0.1081221049 0)
(0.1657469266 0.0808574005 0)
(0.1807711317 0.04816570648 0)
(0.1855866634 0.008033968432 0)
(0.177484927 -0.04214404818 0)
(0.1535153072 -0.1060515254 0)
(0.1113026948 -0.188979856 0)
(0.05215940577 -0.2958936686 0)
(-0.01263204032 -0.417651267 0)
(-0.05681298583 -0.4888552819 0)
(-0.0246623245 -0.3239512853 0)
(-0.01780457885 0.1516971459 0)
(-0.06129585888 0.2236440773 0)
(-0.05227573669 0.2176548357 0)
(-0.01438138769 0.1949149936 0)
(0.03537601288 0.1710272085 0)
(0.08855399816 0.1490416097 0)
(0.1411718611 0.1293529816 0)
(0.1909463705 0.1113662509 0)
(0.2362829639 0.09403892816 0)
(0.2757805612 0.07618608472 0)
(0.3079061996 0.05656880534 0)
(0.3307888538 0.03385776664 0)
(0.3420470617 0.00653143434 0)
(0.3386809002 -0.02739656082 0)
(0.3168785749 -0.07108598623 0)
(0.2720501955 -0.1304704944 0)
(0.1999965167 -0.216451176 0)
(0.1028942236 -0.3383284958 0)
(0.00430279461 -0.4567592448 0)
(-0.01597389685 -0.369285138 0)
(-0.02421279018 0.2082897755 0)
(-0.03789750211 0.2303816059 0)
(0.03728843309 0.1765421086 0)
(0.1250597783 0.1368475261 0)
(0.2058116499 0.109042176 0)
(0.2779655538 0.08819279709 0)
(0.3421916692 0.07209892766 0)
(0.3987816301 0.05917002317 0)
(0.4477870163 0.04802257618 0)
(0.4889767235 0.03752366111 0)
(0.5216832182 0.02672700485 0)
(0.544669218 0.01478196066 0)
(0.5560477477 0.0008130017288 0)
(0.5531613566 -0.01625300096 0)
(0.5321901678 -0.0382540752 0)
(0.4876629748 -0.06912816759 0)
(0.4110905461 -0.1190921395 0)
(0.2908496894 -0.2093526642 0)
(0.1331091592 -0.3382901764 0)
(0.03876034797 -0.3403572568 0)
(0.2418919533 0.109139883 0)
(0.3134761775 0.09712720041 0)
(0.4443505957 0.0569716976 0)
(0.5496570528 0.03510564778 0)
(0.6240746699 0.02373137549 0)
(0.679597682 0.01669988319 0)
(0.7234527531 0.01197138119 0)
(0.7587419196 0.008688851213 0)
(0.7870186557 0.00625460086 0)
(0.8090825389 0.004235712845 0)
(0.825111936 0.002336620406 0)
(0.8347345661 0.0003497585276 0)
(0.8370851608 -0.001901578575 0)
(0.8307404886 -0.004584699651 0)
(0.8133939283 -0.008025348868 0)
(0.7811484548 -0.01288682546 0)
(0.7257082042 -0.02123617505 0)
(0.6298735911 -0.03809941442 0)
(0.4592699502 -0.08555636109 0)
(0.3048925075 -0.1256985883 0)
)
;

boundaryField
{
    movingWall
    {
        type            calculated;
        value           uniform (1 0 0);
    }
    fixedWalls
    {
        type            calculated;
        value           uniform (0 0 0);
    }
    frontAndBack
    {
        type            empty;
    }
}


// ************************************************************************* //
