/*--------------------------------*- C++ -*----------------------------------*\
  =========                 |
  \\      /  F ield         | OpenFOAM: The Open Source CFD Toolbox
   \\    /   O peration     | Website:  https://openfoam.org
    \\  /    A nd           | Version:  13
     \\/     M anipulation  |
\*---------------------------------------------------------------------------*/
FoamFile
{
    format      ascii;
    class       scalarField;
    location    "41";
    object      p_all;
}
// * * * * * * * * * * * * * * * * * * * * * * * * * * * * * * * * * * * * * //


400
(
-1.688914414e-09
-0.000528872458
-0.001174072343
-0.001673516652
-0.001907525495
-0.00182675707
-0.001406793264
-0.0006367257297
0.0004743246877
0.001882113944
0.003492286675
0.005154120511
0.006671464475
0.007834416345
0.008469628213
0.008496771097
0.007971802079
0.007100886112
0.006216073194
0.005662928837
0.000535960162
-1.121434136e-05
-0.0005809416643
-0.0009799006444
-0.001155668623
-0.001081434214
-0.0007360875934
-0.0001045865432
0.0008133937336
0.001988697231
0.003347766385
0.004765567327
0.00607286744
0.007084561886
0.007645388295
0.007682031998
0.007241370614
0.006495503148
0.005705735715
0.005142982554
0.001206419548
0.0005216856952
-8.0325654e-05
-0.0004444700631
-0.0006051147372
-0.0005697899733
-0.000323217405
0.0001571875142
0.00088786388
0.001861415206
0.003028174453
0.004284581156
0.00547624705
0.006422538259
0.006961918907
0.007006534858
0.006582938024
0.005831344556
0.004956926954
0.004223894425
0.001687971982
0.000804957803
8.552822824e-05
-0.0003218836699
-0.0005300101283
-0.0005792292937
-0.0004578112061
-0.0001309090497
0.0004402608115
0.001275416244
0.002350216873
0.003577236702
0.004802312106
0.005825565426
0.006449054137
0.006540950301
0.00608956048
0.005208096826
0.004082208048
0.003047346321
0.001725163662
0.0006416461984
-0.0002212203685
-0.0007159330043
-0.001021951394
-0.00120483182
-0.001250330276
-0.001105129466
-0.0007012018114
1.560065461e-05
0.001052826407
0.002343009406
0.003729076143
0.004978722702
0.005832504729
0.006081333886
0.005644653595
0.004596216867
0.003122033565
0.001689529092
0.001106277296
-0.0001558856923
-0.001163592964
-0.00177526285
-0.002226599935
-0.002600220869
-0.002873039751
-0.002966914358
-0.002776680239
-0.002203114312
-0.001193383429
0.0002195746708
0.001884641556
0.003534140625
0.004824750658
0.005428175273
0.005144581645
0.003970034941
0.002088162789
0.0001598323479
-0.0003466095256
-0.00175512922
-0.002900853653
-0.00365655171
-0.004304736454
-0.004938896593
-0.005522883906
-0.005948837082
-0.00606636118
-0.005717142763
-0.004781465655
-0.003234194824
-0.00119254418
0.001052074742
0.003057395427
0.004325925855
0.004461434417
0.003303951421
0.0009953918564
-0.00153991433
-0.002770322288
-0.004286649642
-0.005559544568
-0.006485757232
-0.007386532929
-0.008363300387
-0.009366351076
-0.01025637659
-0.01083131667
-0.01085896989
-0.01012667576
-0.008509493495
-0.006048506069
-0.003021404029
3.659236016e-05
0.002411574929
0.00340610199
0.002567708866
-0.0001071976537
-0.003361715552
-0.006248631822
-0.00782955209
-0.009213180698
-0.01032987532
-0.01153424753
-0.01293731125
-0.01448021295
-0.01599521637
-0.01722635302
-0.01785522711
-0.01754850696
-0.01603535373
-0.0132160777
-0.009285393958
-0.004825893427
-0.0007873155035
0.001714737871
0.001729631562
-0.00109932847
-0.005150028204
-0.01080257375
-0.01240062015
-0.01386585594
-0.01517085893
-0.01670404536
-0.01859403525
-0.0207827909
-0.02308255236
-0.02518730619
-0.02668722604
-0.02710730056
-0.02598656082
-0.02301363042
-0.01819858841
-0.01207075522
-0.005770625663
-0.0009183437163
0.0007775342659
-0.001739165502
-0.00655466793
-0.01639054772
-0.01795283995
-0.01944394912
-0.02088601047
-0.02271359818
-0.02509000311
-0.02797318858
-0.03116777851
-0.03432705162
-0.03695366724
-0.03842367986
-0.03805606045
-0.0352735658
-0.02978301519
-0.02191095849
-0.01284839429
-0.004708415419
-0.0002083133403
-0.001585021587
-0.006899179313
-0.02292742645
-0.0243904654
-0.0258020222
-0.02724244369
-0.02922762735
-0.03198526442
-0.03550785657
-0.039604601
-0.04389831279
-0.04781420712
-0.0505893881
-0.05132898235
-0.04911987694
-0.04331706595
-0.03387025119
-0.02178858112
-0.009507145427
-0.00088096664
0.0001377117598
-0.004985229748
-0.03033426008
-0.03160657063
-0.03274493385
-0.03390853242
-0.03576949058
-0.03866509503
-0.04263928148
-0.04751021661
-0.05287295496
-0.05808228051
-0.06224800188
-0.06427040747
-0.0629467563
-0.05721131471
-0.04652322335
-0.03145405441
-0.0144284317
-0.0003237750793
0.0047717682
0.001186972487
-0.03864048137
-0.03954837401
-0.04006094436
-0.0404768473
-0.04175811427
-0.04440704577
-0.04852258395
-0.0539176233
-0.06014422219
-0.06647931196
-0.07191145446
-0.07515930195
-0.07475614004
-0.06924971897
-0.05757341232
-0.03967358558
-0.01755581521
0.003302777032
0.01458125834
0.01477614899
-0.04818697292
-0.04831995747
-0.04755588899
-0.04648836914
-0.04656390386
-0.04848428594
-0.05236962792
-0.0579816999
-0.06478831466
-0.07195856733
-0.07834554378
-0.08249157109
-0.08269173084
-0.07715970162
-0.06435225026
-0.04354452019
-0.01598635992
0.01291760375
0.03301156201
0.04031952013
-0.05997292568
-0.05834954569
-0.05509694882
-0.0514690886
-0.04959347447
-0.05029953916
-0.05361931451
-0.05917596454
-0.06628533202
-0.07395788226
-0.0808756776
-0.08538468005
-0.08553996881
-0.07924570043
-0.0645448102
-0.04011068507
-0.006295805412
0.03227728652
0.06447078108
0.08326123439
-0.0762458136
-0.0707052231
-0.0626542211
-0.05497292419
-0.0503872451
-0.04950628604
-0.05205467321
-0.05738961373
-0.06459214161
-0.07245676026
-0.079454671
-0.08370457026
-0.08299309244
-0.074881337
-0.05697423625
-0.02735629701
0.01454076361
0.06546584178
0.1143636935
0.1501627091
-0.1041594799
-0.0879305526
-0.06998330011
-0.05627303172
-0.04837409542
-0.04577534455
-0.04757223538
-0.05270240651
-0.05992528428
-0.06778355048
-0.07453017087
-0.07805667183
-0.0758739239
-0.0651388594
-0.04286019013
-0.006216326905
0.0467379472
0.1153058284
0.1914644353
0.2582726917
-0.175966632
-0.1148822977
-0.0736097997
-0.0518920251
-0.0411832139
-0.03757300908
-0.0392757787
-0.04471915728
-0.05229515809
-0.06033512284
-0.06695570752
-0.06990571932
-0.06650624091
-0.05357798792
-0.02739274798
0.01638938537
0.08271255429
0.1773563226
0.3054028556
0.4526677417
-0.3558375856
-0.1552464842
-0.07042908618
-0.04278222555
-0.03135113635
-0.02760026517
-0.02977355041
-0.03595028332
-0.04419054083
-0.05269590956
-0.05955436598
-0.06250516871
-0.05882002204
-0.04516727575
-0.01725189058
0.0307989218
0.1084061535
0.2333395896
0.4347867632
0.7358542631
)


// ************************************************************************* //
