/*--------------------------------*- C++ -*----------------------------------*\
  =========                 |
  \\      /  F ield         | OpenFOAM: The Open Source CFD Toolbox
   \\    /   O peration     | Website:  https://openfoam.org
    \\  /    A nd           | Version:  13
     \\/     M anipulation  |
\*---------------------------------------------------------------------------*/
FoamFile
{
    format      ascii;
    class       surfaceScalarField;
    location    "41";
    object      phi;
}
// * * * * * * * * * * * * * * * * * * * * * * * * * * * * * * * * * * * * * //

dimensions      [0 3 -1 0 0 0 0];

internalField   nonuniform List<scalar> 
760
(
-1.321898004e-05
1.321843228e-05
-7.201783756e-05
5.879885354e-05
-0.0001620727594
9.005485419e-05
-0.000265222992
0.0001031501693
-0.0003682426611
0.0001030198357
-0.0004615043672
9.326202921e-05
-0.0005377498744
7.624565765e-05
-0.000591241985
5.349185471e-05
-0.000617509347
2.626682213e-05
-0.0006135895318
-3.920262978e-06
-0.0005784602345
-3.51293755e-05
-0.0005138429341
-6.461706451e-05
-0.0004246595152
-8.918309361e-05
-0.0003192817003
-0.000105377626
-0.0002092253387
-0.0001100563835
-0.0001081386048
-0.000101086865
-2.992509041e-05
-7.82135872e-05
1.414922597e-05
-4.407423714e-05
2.190948634e-05
-7.760069449e-06
2.190963134e-05
-6.870345047e-05
8.192187636e-05
-0.0002457756463
0.0002358711762
-0.0004934731981
0.0003377525496
-0.0007722779063
0.0003819546764
-0.001050409652
0.0003811511174
-0.00130300655
0.0003458586577
-0.00151060457
0.000283843974
-0.001657872379
0.0002007604091
-0.001733199754
0.0001015948891
-0.001729305528
-7.814277249e-06
-0.001643831349
-0.0001206038115
-0.001481414099
-0.0002270347505
-0.001254381955
-0.0003162155184
-0.0009832949115
-0.0003764646602
-0.0006961415725
-0.0003972095483
-0.0004257314144
-0.000371496893
-0.0002049932964
-0.0002989517001
-5.981240608e-05
-0.0001892551686
-4.923072787e-07
-6.708020436e-05
2.141749268e-05
-0.0001229342521
0.0002048560646
-0.0004149725216
0.0005279093994
-0.0008086683148
0.0007314486213
-0.001247165187
0.0008204518582
-0.001684661618
0.0008186475561
-0.002084430539
0.0007456272046
-0.002416966153
0.0006163790851
-0.002658576852
0.000442370829
-0.002790992135
0.0002340102513
-0.002802413953
3.607830589e-06
-0.002687902459
-0.0002351151104
-0.002452961888
-0.0004619752464
-0.00211417196
-0.0006550054766
-0.001700374394
-0.0007902622712
-0.001251822403
-0.0008457615566
-0.0008167447033
-0.0008065746286
-0.0004446233643
-0.000671073145
-0.0001762322152
-0.0004576464663
-3.221234149e-05
-0.000211100118
-1.079474683e-05
-0.0001720782932
0.0003769343788
-0.0005725608726
0.0009283916446
-0.001105967992
0.001264855625
-0.001698036623
0.001412520704
-0.002290597153
0.001411208483
-0.002837254473
0.001292284811
-0.003300217422
0.001079342017
-0.003648292337
0.0007904454913
-0.003856339336
0.0004420570005
-0.003905816634
5.308497675e-05
-0.003787748154
-0.000353183526
-0.00350402519
-0.0007456980324
-0.003071272671
-0.001087757839
-0.002522630926
-0.001338903984
-0.001907996203
-0.00146039639
-0.001290905612
-0.001423665427
-0.0007407543349
-0.001221224634
-0.0003202710278
-0.0008781299032
-7.110231515e-05
-0.0004602688446
-8.189701563e-05
-0.0002170220085
0.0005939565908
-0.0007188332108
0.001430202752
-0.001385655864
0.001931677983
-0.002127123751
0.002153988365
-0.002874374364
0.002158459115
-0.0035731955
0.001991106182
-0.004178979442
0.001685126203
-0.004653584537
0.001265050641
-0.004964198936
0.0007526712496
-0.005084017807
0.000172903648
-0.004995023763
-0.0004421776734
-0.004691189402
-0.001049532339
-0.004183518409
-0.001595428682
-0.003504389931
-0.002018032351
-0.002710450191
-0.002254336161
-0.001881578012
-0.002252537764
-0.001113233301
-0.001989569515
-0.0005008211624
-0.001490542106
-0.0001191421708
-0.0008419478263
-0.0002010391808
-0.0002573667931
0.0008513234479
-0.0008513398087
0.002024176035
-0.00164229677
0.002722634971
-0.0025265575
0.003038248933
-0.003426901462
0.003058802888
-0.004283389068
0.002847593738
-0.005046215017
0.002447952263
-0.005671018336
0.001889854106
-0.006116751711
0.001198404667
-0.006345982263
0.0004021341442
-0.006327843767
-0.0004603162584
-0.006042476641
-0.00133489949
-0.005488324028
-0.002149581217
-0.004689982161
-0.002816374089
-0.00370572767
-0.003238590568
-0.002631183434
-0.003327082002
-0.001594227016
-0.003026525972
-0.0007363872651
-0.002348381851
-0.0001821206609
-0.001396214416
-0.0003831598439
-0.0002911842612
0.001142507513
-0.0009641253511
0.002697117272
-0.001864163832
0.003622673636
-0.002878145758
0.00405223093
-0.003923464788
0.004104121859
-0.004937001846
0.003861130693
-0.005865889077
0.003376839448
-0.006661002273
0.002684967326
-0.00727343998
0.001810842402
-0.007653973677
0.0007826678348
-0.00775580617
-0.0003584838011
-0.007539788975
-0.001550916708
-0.006984027978
-0.002705342176
-0.006095814694
-0.003704587273
-0.004925704415
-0.004408700724
-0.003579480018
-0.004673306305
-0.002220388305
-0.004385617631
-0.00105084569
-0.003517924424
-0.0002684677819
-0.002178592315
-0.0006516276268
-0.0003159656349
0.001458473018
-0.001048737716
0.003429889233
-0.002034531877
0.004608467833
-0.003154903957
0.005172603108
-0.00432513331
0.005274351292
-0.005481849481
0.005017846891
-0.006571932336
0.004466922293
-0.007544121099
0.003657156062
-0.008343811343
0.002610532601
-0.008911130566
0.001349986999
-0.009182806467
-8.680795571e-05
-0.009097013084
-0.001636710122
-0.0086045846
-0.003197770653
-0.007684199358
-0.004624972465
-0.006364068683
-0.005728831319
-0.004746043582
-0.006291331324
-0.003022882348
-0.006108778805
-0.001469581341
-0.0050712254
-0.0003882445445
-0.003259929108
-0.00103987217
-0.000329195555
0.001787668651
-0.001096443065
0.004197136599
-0.002135079762
0.005647104426
-0.003325368519
0.006362891841
-0.004583651726
0.006532634557
-0.005849373422
0.006283568686
-0.007072574986
0.005690123943
-0.008203824765
0.004788405869
-0.009187258346
0.003593966139
-0.009956893712
0.002119622271
-0.01043606959
0.0003923678212
-0.01054224994
-0.00153052985
-0.01019503522
-0.003544985411
-0.009334089407
-0.005485918286
-0.007946629215
-0.007116291501
-0.006105926911
-0.008132033609
-0.004012930322
-0.008201775379
-0.002014593015
-0.007069562703
-0.0005528022279
-0.004721719896
-0.001592674395
-0.0003297928151
0.002117461578
-0.001101701809
0.004969045599
-0.002151423389
0.006696825925
-0.003361078022
0.007572546382
-0.004650845792
0.007822402307
-0.005965957041
0.007598680006
-0.007263379492
0.006987546508
-0.008500565979
0.006025592445
-0.009627011806
0.004720411979
-0.01057860278
0.003071213183
-0.01127459539
0.001088360329
-0.01161814894
-0.001186976399
-0.01150162926
-0.00366150516
-0.01082052634
-0.006167021258
-0.009503001544
-0.008433816336
-0.007560608961
-0.01007442622
-0.005160873371
-0.01060151099
-0.002696115615
-0.009534320476
-0.0007741503523
-0.006643685161
-0.002366824742
-0.000319934928
0.002437396515
-0.001066686669
0.00571579743
-0.00208042391
0.007710563163
-0.003246814701
0.0087389371
-0.004492308145
0.009067895695
-0.005770873529
0.00887724541
-0.007050316288
0.008266989351
-0.008300542246
0.007275818501
-0.009484302135
0.00590417193
-0.01054996265
0.004136873697
-0.01142562078
0.001964018425
-0.01201417231
-0.0005984249355
-0.01219379471
-0.003481882817
-0.01182096894
-0.006539847077
-0.01075537872
-0.009499406597
-0.008913750696
-0.01191605428
-0.006370857868
-0.01314440385
-0.003498965212
-0.01240621315
-0.001063151396
-0.009079498977
-0.003429976133
-0.0003074094281
0.002744805903
-0.001006587421
0.006414975484
-0.001938354767
0.008642330524
-0.002991898994
0.009792481277
-0.004102813537
0.01017881018
-0.005237449071
0.01001188093
-0.006378628076
0.009408168397
-0.007514083818
0.008411274316
-0.00862733174
0.00701741993
-0.009689844127
0.005199386141
-0.0106531423
0.002927316633
-0.01143756778
0.0001860005456
-0.01192945615
-0.002989994455
-0.01196499044
-0.006504312793
-0.01134373897
-0.01012065808
-0.009868967811
-0.01339082546
-0.007460114262
-0.01555325741
-0.004363834577
-0.01550249284
-0.001425535641
-0.01201779791
-0.004855511772
-0.0003089282338
0.003053734148
-0.0009555673778
0.007061614639
-0.001768490014
0.009455253142
-0.002639390595
0.0106633818
-0.003518262138
0.01105768166
-0.004389722746
0.0108833415
-0.005256719347
0.010275165
-0.00612951465
0.009284069657
-0.007017707208
0.00790561255
-0.007923326733
0.006105005741
-0.0088322133
0.003836203274
-0.009704214574
0.001058001879
-0.01045072639
-0.002243482599
-0.01092412008
-0.006030919073
-0.0108950285
-0.01014974965
-0.01006488816
-0.0142209658
-0.008157305536
-0.01746084002
-0.005167631656
-0.01849216672
-0.001854348998
-0.01533108057
-0.006709860769
-0.0003552700098
0.00340900423
-0.0009733331275
0.007679677759
-0.001646057445
0.01012797741
-0.00226871047
0.01128603477
-0.002816840154
0.01160581129
-0.003303693795
0.0113701951
-0.003759410221
0.0107308814
-0.004220924913
0.009745584349
-0.004726147084
0.008410834747
-0.005309762845
0.006688621554
-0.005996656758
0.004523097254
-0.006791798368
0.001853143557
-0.007660585661
-0.001374695248
-0.00850302944
-0.005188475253
-0.009113178234
-0.009539600831
-0.00914250814
-0.01419163588
-0.00812840071
-0.01847494745
-0.005711156594
-0.02090941083
-0.002318284787
-0.01872395237
-0.009028145555
-0.0005003769885
0.0039093813
-0.001151296464
0.008330597259
-0.001674821072
0.01065150199
-0.001981640427
0.01159285408
-0.002095672584
0.01171984342
-0.002075735804
0.0113502583
-0.001988477339
0.01064362291
-0.00190115147
0.009658258452
-0.001878927291
0.00838861055
-0.001985971271
0.006795665534
-0.002282467089
0.004819593092
-0.002818755843
0.002389432345
-0.003622152271
-0.0005712987828
-0.004668842932
-0.004141784561
-0.005834634989
-0.008373808756
-0.006807663755
-0.01321860711
-0.007016668858
-0.01826594234
-0.005716401046
-0.02220967863
-0.002739567092
-0.02170078632
-0.01176771264
-0.0008308853619
0.00474026671
-0.001604832881
0.009104544815
-0.001950979446
0.01099764857
-0.001839382904
0.01148125755
-0.001385434961
0.01126589549
-0.0007181318236
0.01068295516
4.821314842e-05
0.009877277915
0.0008164046089
0.008890066949
0.001495360545
0.007709654564
0.001998424081
0.006292601953
0.002238517476
0.004579499668
0.002128354868
0.002499594942
0.001583160046
-2.610395827e-05
0.0005450315071
-0.003103656015
-0.0009843146297
-0.006844462614
-0.002828401818
-0.01137451992
-0.004459126014
-0.01663521814
-0.004810489548
-0.0218583151
-0.002944290923
-0.02356698493
-0.01471200356
-0.001465682537
0.006205949259
-0.002379876712
0.01001873901
-0.002373444978
0.01099121689
-0.001603541992
0.01071135464
-0.0003496264248
0.01001197997
0.00116364256
0.00916968619
0.00277184204
0.008269078413
0.004349534142
0.007312374798
0.00579162374
0.006267564905
0.006998014967
0.005086210667
0.007865493369
0.00371202122
0.008282285418
0.002082802864
0.008123822365
0.0001323590797
0.007264496894
-0.002244330552
0.005585213172
-0.005165178896
0.003073873115
-0.008863179865
7.897197279e-05
-0.013640317
-0.002445747358
-0.01933359577
-0.002601078016
-0.02341165427
-0.01731308157
-0.002365504013
0.008571453265
-0.002963808774
0.01061704374
-0.001922814137
0.009950222281
8.111530295e-05
0.00870742526
0.002534887193
0.007558208134
0.005140255859
0.006564317546
0.007719753764
0.005689580501
0.01015462173
0.004877506805
0.01234957372
0.004072612883
0.01421200251
0.003223781841
0.01564054041
0.002283483297
0.01651758917
0.00120575409
0.01669709984
-4.715160296e-05
0.0160271264
-0.001574357116
0.01430509017
-0.003443142673
0.01133283084
-0.005890920541
0.007055613757
-0.009363099921
0.002201623653
-0.01447960566
-0.001027320549
-0.02018271007
-0.01834040212
-0.002150342895
0.01072179615
-7.199469152e-05
0.008538695521
0.003741898348
0.006136329132
0.007719772756
0.004729550831
0.01156187097
0.003716109934
0.01514101056
0.002985177995
0.01839885621
0.002431734885
0.02130155561
0.00197480744
0.02381243381
0.001561734703
0.02587973495
0.00115648072
0.02743056912
0.0007326491363
0.0283647283
0.0002715949033
0.02857561756
-0.0002580408645
0.02788766532
-0.0008864048894
0.02609934134
-0.001654818692
0.02290826569
-0.002699844905
0.01790696685
-0.004361801083
0.01076690815
-0.007339546961
0.002912180368
-0.01232798228
-0.01542822175
0.0107217961
0.01926049159
0.02539682069
0.03012637151
0.03384248145
0.03682765948
0.03925939441
0.0412342019
0.04279593664
0.04395241738
0.04468506653
0.04495666144
0.04469862057
0.04381221567
0.04215739698
0.03945755207
0.03509575098
0.02775620402
0.01542822174
)
;

boundaryField
{
    movingWall
    {
        type            calculated;
        value           uniform 0;
    }
    fixedWalls
    {
        type            calculated;
        value           uniform 0;
    }
    frontAndBack
    {
        type            empty;
    }
}


// ************************************************************************* //
