/*--------------------------------*- C++ -*----------------------------------*\
  =========                 |
  \\      /  F ield         | OpenFOAM: The Open Source CFD Toolbox
   \\    /   O peration     | Website:  https://openfoam.org
    \\  /    A nd           | Version:  13
     \\/     M anipulation  |
\*---------------------------------------------------------------------------*/
FoamFile
{
    format      ascii;
    class       surfaceScalarField;
    location    "41";
    object      phi_0;
}
// * * * * * * * * * * * * * * * * * * * * * * * * * * * * * * * * * * * * * //

dimensions      [0 3 -1 0 0 0 0];

internalField   nonuniform List<scalar> 
760
(
4.603123862e-06
-4.602877281e-06
-3.88688802e-05
4.347221215e-05
-0.0001315896772
9.272065557e-05
-0.0002576092553
0.0001260196081
-0.0004009877025
0.0001433779864
-0.000548324554
0.0001473376419
-0.0006877342034
0.0001394094223
-0.0008074625266
0.0001197282923
-0.0008953290672
8.786720127e-05
-0.0009394293831
4.410043008e-05
-0.000930055214
-9.37499647e-06
-0.0008624693199
-6.75857688e-05
-0.000739726269
-0.0001227427962
-0.0005745628329
-0.0001651641349
-0.0003892068409
-0.0001853560311
-0.0002123126502
-0.0001768932613
-7.301573058e-05
-0.0001392965999
6.949943223e-06
-7.996625588e-05
2.268203784e-05
-1.573246856e-05
2.268256206e-05
-4.732381428e-05
4.272074006e-05
-0.0002098596028
0.0002060079716
-0.0004741649686
0.000357024864
-0.0008075927198
0.0004594486233
-0.001175802999
0.0005115862876
-0.001547187789
0.0005187233113
-0.001892200036
0.0004844231748
-0.002181894681
0.0004094236388
-0.002387836858
0.0002938090499
-0.002484149814
0.0001404135399
-0.002451570468
-4.195615811e-05
-0.002282580578
-0.0002365769395
-0.001986430545
-0.0004188910292
-0.001592116588
-0.0005594761943
-0.001147599885
-0.0006298730698
-0.0007137320021
-0.0006107620473
-0.0003525593015
-0.0005004683499
-0.0001114676137
-0.0003210562752
-5.856283057e-06
-0.0001213431428
1.682739001e-05
-0.0001120479526
0.0001547688322
-0.0004061822043
0.0005001430412
-0.0008361840937
0.0007870257792
-0.001352863572
0.0009761278089
-0.001909175774
0.001067898251
-0.002461532969
0.001071081932
-0.002968554947
0.0009914462616
-0.003389861043
0.0008307301858
-0.003686631639
0.0005905779253
-0.003824502303
0.0002782840171
-0.003778504693
-8.795317494e-05
-0.003539096735
-0.0004759844867
-0.00311802462
-0.0008399629921
-0.002552247147
-0.001125253742
-0.001903846743
-0.00127827324
-0.001253719939
-0.001260887876
-0.000687716836
-0.001066470341
-0.000276414154
-0.0007323593412
-5.336264772e-05
-0.0003443926173
-3.65345527e-05
-0.0001736601584
0.0003284286338
-0.0005948648964
0.0009213459954
-0.001181300383
0.001373459981
-0.001864820308
0.001659647506
-0.002587242227
0.001790320498
-0.003296769296
0.001780608995
-0.003944733424
0.001639410187
-0.004483799055
0.001369797257
-0.004868485013
0.000975263691
-0.005058110822
0.0004679099491
-0.005021792065
-0.0001242712061
-0.004744773558
-0.0007530008585
-0.004235275943
-0.001349459091
-0.00353042031
-0.001830109239
-0.002698968294
-0.002109724217
-0.001837518255
-0.002122335694
-0.001056825499
-0.001847162063
-0.0004578419421
-0.001331342355
-0.0001035793476
-0.0006986532028
-0.0001401139866
-0.0002285087404
0.0005569374684
-0.0007645699272
0.001457407896
-0.001492668924
0.00210155772
-0.002326275649
0.002493253287
-0.003197557058
0.002661601975
-0.00404930289
0.002632356168
-0.004829056099
0.002419164029
-0.005485904382
0.00202664605
-0.005970092709
0.001459451228
-0.006235174813
0.000732994222
-0.006242397602
-0.0001170457951
-0.00596699342
-0.001028402997
-0.005406454766
-0.001909996976
-0.004589713746
-0.00264685014
-0.003585078577
-0.003114357677
-0.002502094488
-0.003205317879
-0.001480818278
-0.002868438784
-0.0006641482857
-0.002148010705
-0.0001583143392
-0.001204487908
-0.0002984280987
-0.0002747451203
0.0008316815925
-0.0009086566523
0.00209131778
-0.001758461148
0.002951360492
-0.002722037043
0.003456829399
-0.003724141229
0.003663705848
-0.004704781985
0.003612997407
-0.005610714631
0.003325097791
-0.006390303785
0.002806237288
-0.006991496091
0.002060644361
-0.007362401874
0.00110390419
-0.007454446344
-2.499740465e-05
-0.007228107837
-0.001254740465
-0.006662706505
-0.002475399262
-0.0057694713
-0.00354008577
-0.004606750453
-0.004277077534
-0.003291297656
-0.004520770878
-0.001995237135
-0.00416450191
-0.0009169617581
-0.00322628522
-0.0002250990488
-0.001896354836
-0.0005235267829
-0.0003104733555
0.001142154852
-0.001020895754
0.002801738741
-0.001967019124
0.003897482737
-0.003035006898
0.004524818041
-0.004144898284
0.004773598171
-0.005236527752
0.004704627221
-0.006258693422
0.004347264526
-0.0071618839
0.003709430881
-0.007894137023
0.00279289944
-0.008399485004
0.001609255637
-0.00861898467
0.0001945039124
-0.008495659807
-0.001378067782
-0.007984182054
-0.00298688056
-0.007067866582
-0.004456402157
-0.005781865338
-0.005563079004
-0.004237758769
-0.006064880178
-0.002635732015
-0.00576653316
-0.001241752032
-0.004620266078
-0.0003133726058
-0.00282473582
-0.0008368993069
-0.0003337932835
0.001475948013
-0.001095223341
0.003563168491
-0.002106491648
0.004908750248
-0.003246134691
0.00566446036
-0.004432141399
0.005959606057
-0.005606619128
0.005879105131
-0.006723158791
0.0054638048
-0.007737512313
0.004723786785
-0.008601175975
0.003656564498
-0.009257329969
0.002265410546
-0.009639311808
0.0005764846707
-0.009673016396
-0.001344366379
-0.009285443967
-0.003374455783
-0.008422837907
-0.005319008357
-0.007080826823
-0.006905090779
-0.005344709144
-0.007801000111
-0.003426243409
-0.007685000971
-0.001662813386
-0.006383697599
-0.0004334769786
-0.004054069244
-0.001270376607
-0.0003434600353
0.001819407435
-0.001127213126
0.004346921664
-0.002167038178
0.005948575118
-0.003337435861
0.006834857147
-0.00455662556
0.007178796822
-0.005771136345
0.007093615227
-0.006941989908
0.006634658195
-0.008033666168
0.005815463953
-0.00900559935
0.004628498899
-0.009805629299
0.003065440316
-0.01036543616
0.001136289121
-0.01059923345
-0.001110570057
-0.01040856147
-0.003565126412
-0.009697757924
-0.006029810718
-0.008406815963
-0.008196033514
-0.006566022309
-0.009641795233
-0.00436521442
-0.009885808894
-0.00219813915
-0.008550774242
-0.0005962659391
-0.005655941467
-0.001866642806
-0.0003399856495
0.002159392713
-0.001116731115
0.005123666753
-0.002144933955
0.006976776965
-0.00329756784
0.007987489339
-0.004494903198
0.008376131521
-0.005689818297
0.008288527784
-0.006853283715
0.007798123071
-0.007962103686
0.00692428423
-0.008988851477
0.005655248683
-0.009893273349
0.003969864523
-0.01061471168
0.001857727175
-0.01106606888
-0.0006592125396
-0.01113295348
-0.003498240459
-0.01068083168
-0.006481934216
-0.009584011335
-0.009292857564
-0.007787272736
-0.01143853686
-0.005408337794
-0.01226474561
-0.002851584292
-0.01110752838
-0.0008124946706
-0.007695034973
-0.002679137309
-0.000327122961
0.002486515461
-0.001071464087
0.005868006987
-0.00204793037
0.007953241152
-0.003128999695
0.009068555316
-0.004238782195
0.009485911604
-0.005338715704
0.009388458355
-0.006412310339
0.008871718588
-0.007452126663
0.007964101812
-0.008448933811
0.00665205689
-0.009381949817
0.004902882608
-0.01020916166
0.0026849409
-0.01085573983
-1.263324272e-05
-0.01120849731
-0.003145483996
-0.01110730743
-0.006583129562
-0.01036382376
-0.01003634585
-0.00881560168
-0.01298676127
-0.006450203976
-0.01463014586
-0.00360050364
-0.01395722673
-0.001091128716
-0.01020440895
-0.003770264591
-0.0003137841475
0.002800298848
-0.001011063569
0.006565283969
-0.001900976733
0.008843151659
-0.002855092998
0.01002266735
-0.003804318806
0.01043513429
-0.004722250074
0.0103063876
-0.005608126763
0.009757597588
-0.006473314785
0.008829292777
-0.007330630522
0.007509373899
-0.008184664585
0.005756916045
-0.009021066235
0.003521342437
-0.009794666728
0.0007609676918
-0.01040948081
-0.0025306711
-0.01070717544
-0.00628543628
-0.01045712025
-0.01028639923
-0.00938910203
-0.01405477582
-0.007312527636
-0.01670672055
-0.004379351662
-0.01689040211
-0.001435367226
-0.01314839079
-0.005205633144
-0.0003167635628
0.003117061693
-0.0009718638182
0.007220380911
-0.001751164274
0.009622450288
-0.002524618545
0.01079611884
-0.003236409514
0.01114692287
-0.003879021636
0.01094899829
-0.00447205202
0.01035062943
-0.005048361266
0.009405603298
-0.005644652287
0.008105665995
-0.006293421945
0.006405686748
-0.007013687214
0.004241609799
-0.007797984237
0.001545265612
-0.00859171037
-0.001736947144
-0.009266517334
-0.005610629198
-0.009588918372
-0.009963998334
-0.009211238758
-0.01443245587
-0.00774899766
-0.0181689644
-0.005063790576
-0.01957561076
-0.001834618953
-0.01637756495
-0.007040254543
-0.0003651966997
0.003482257985
-0.001012200521
0.007867381602
-0.001669903787
0.01028015166
-0.002209622629
0.01133583587
-0.00260294836
0.01154024831
-0.002873246983
0.01121929634
-0.003067274511
0.0105446574
-0.003241803473
0.009580132309
-0.003457002666
0.008320864008
-0.003771659567
0.006720343492
-0.004237284625
0.004707236996
-0.004888162235
0.002196145418
-0.00572312924
-0.0009019797541
-0.006673699515
-0.004660054949
-0.007553503214
-0.009084195527
-0.007999704601
-0.01398625765
-0.00746893881
-0.01869973198
-0.005461644979
-0.02158290215
-0.002250349248
-0.01958885993
-0.009290602164
-0.0005073282808
0.003989585931
-0.001216050381
0.008576101712
-0.001745544821
0.01080964386
-0.001985836106
0.01157612376
-0.001964881757
0.01151929462
-0.001756167717
0.01101058334
-0.001442546788
0.01023103644
-0.001106665918
0.009244251479
-0.0008297414569
0.0080439423
-0.0006918533459
0.006582460097
-0.0007710279814
0.004786415357
-0.001138964263
0.002564081927
-0.001849569339
-0.0001913768783
-0.002912029981
-0.003597593282
-0.004234026679
-0.007762199196
-0.005521157943
-0.01269912612
-0.006164285753
-0.01805660266
-0.005309349208
-0.02243784086
-0.002593352757
-0.02230485694
-0.01188396093
-0.0008127253124
0.004802310902
-0.001679677593
0.009443053483
-0.002037963042
0.01116792973
-0.001857144862
0.01139530158
-0.001278556114
0.01094070379
-0.0004528994146
0.01018492798
0.0004920577012
0.009286081148
0.001448002813
0.008288306305
0.002317532502
0.00717441249
0.003006775788
0.005893217581
0.003420322834
0.004372868037
0.003459187559
0.002525217842
0.003023570999
0.000244244498
0.002027630245
-0.002601649908
0.0004441484953
-0.006178716133
-0.001581300332
-0.01067367995
-0.003515540643
-0.0161223678
-0.004263036921
-0.02169035121
-0.002690140889
-0.02387774786
-0.01457410247
-0.001348859669
0.006151170461
-0.002418575389
0.01051276837
-0.002384455263
0.01113381217
-0.001493728399
0.01050457553
-0.0001026158232
0.00954959012
0.001537630478
0.008544682031
0.003257705018
0.007566006825
0.004934116048
0.006611895276
0.006465530562
0.00564299926
0.007756700097
0.004602050518
0.008707416943
0.003422152074
0.009205270802
0.00202736546
0.00912109062
0.0003284288368
0.008311261835
-0.001791827142
0.006636720385
-0.004504171933
0.004048432661
-0.008085383599
0.0008422773398
-0.01291620631
-0.001885172181
-0.0189629009
-0.002256201385
-0.02350672283
-0.01683030449
-0.002135289097
0.008286460126
-0.002921300186
0.01129877705
-0.001685867895
0.009898383211
0.0005366521607
0.008282059133
0.003117842077
0.00696840192
0.005766992389
0.005895530773
0.00833086578
0.00500213122
0.01071265766
0.004230101573
0.01283786839
0.003517789513
0.01463320425
0.002806716992
0.01601292122
0.00204243361
0.01687016643
0.001170119811
0.01706805722
0.0001305443219
0.01643498808
-0.001158762752
0.01475567602
-0.002824860946
0.01179581229
-0.005125520486
0.007464391595
-0.008584789978
0.002448398263
-0.01394690511
-0.0008834120272
-0.02017491219
-0.01771371727
-0.00248782353
0.01077428511
-1.25407285e-05
0.008823492449
0.004177516212
0.005708324744
0.008327494129
0.004132082733
0.01212223522
0.003173662452
0.01553049586
0.002487270296
0.01855290448
0.001979722141
0.02119478794
0.001588217305
0.02345250149
0.001260076463
0.02530309252
0.0009561283624
0.02669945143
0.0006460775518
0.02756420068
0.0003053731584
0.02778465865
-8.991119275e-05
0.02720134992
-0.0005754524442
0.02557727718
-0.001200787032
0.02255099568
-0.002099238058
0.01762066614
-0.003654460726
0.01040235473
-0.006728589981
0.002475616754
-0.01224817833
-0.01523809724
0.01077428667
0.01959778118
0.0253061056
0.02943818722
0.03261184946
0.03509911938
0.03707884031
0.03866705769
0.03992713552
0.04088326298
0.0415293391
0.04183471401
0.04174480142
0.04116935049
0.03996856627
0.03786932967
0.03421486863
0.02748627686
0.01523809733
)
;

boundaryField
{
    movingWall
    {
        type            calculated;
        value           uniform 0;
    }
    fixedWalls
    {
        type            calculated;
        value           uniform 0;
    }
    frontAndBack
    {
        type            empty;
    }
}


// ************************************************************************* //
