/*--------------------------------*- C++ -*----------------------------------*\
  =========                 |
  \\      /  F ield         | OpenFOAM: The Open Source CFD Toolbox
   \\    /   O peration     | Website:  https://openfoam.org
    \\  /    A nd           | Version:  13
     \\/     M anipulation  |
\*---------------------------------------------------------------------------*/
FoamFile
{
    format      ascii;
    class       volVectorField;
    location    "41";
    object      U;
}
// * * * * * * * * * * * * * * * * * * * * * * * * * * * * * * * * * * * * * //

dimensions      [0 1 -1 0 0 0 0];

internalField   nonuniform List<vector> 
400
(
(1.100424279e-05 -3.783301303e-05 0)
(-0.0006660969446 0.0004130421249 -1.551173625e-23)
(-0.002185374648 0.0009203928852 0)
(-0.004047833279 0.001312781256 0)
(-0.005971869556 0.001535068115 6.845477915e-25)
(-0.007762783535 0.001569850553 4.150872913e-24)
(-0.009284543255 0.001423563822 -7.373019575e-24)
(-0.01043593821 0.001119719916 7.531091871e-24)
(-0.01113681251 0.0006960775158 -2.095398995e-25)
(-0.01132711259 0.0002030740935 -3.99469151e-24)
(-0.01097177588 -0.0003002337307 5.803656887e-24)
(-0.01007233109 -0.0007475140192 -5.929609184e-23)
(-0.00867988138 -0.001075559902 -6.55274032e-23)
(-0.006902852049 -0.001233042887 -7.784358731e-23)
(-0.004910736119 -0.00119263865 4.573611988e-24)
(-0.002927230841 -0.0009619212555 -4.137953039e-24)
(-0.001205300173 -0.0005912120398 -1.998767791e-22)
(-1.907110401e-05 -0.0001698822752 0)
(0.0005181515251 0.0001720871217 1.50965204e-25)
(0.0002227505135 0.0003059795056 -2.553553839e-24)
(-0.0002633639464 0.0008289686966 1.383077677e-25)
(-0.002703306317 0.003383841772 1.560968634e-23)
(-0.006907275895 0.005604499679 1.555140738e-25)
(-0.01195231752 0.007008205534 -8.495362893e-25)
(-0.01713504403 0.007553776398 1.16213199e-24)
(-0.02197535711 0.007294202986 1.306865803e-23)
(-0.02611076446 0.006321897849 1.38858719e-24)
(-0.02926564843 0.004754193999 -7.282803276e-24)
(-0.03122672754 0.00273714929 1.01529074e-23)
(-0.03184200562 0.0004524022268 4.510043294e-24)
(-0.03102761164 -0.001884146479 -6.318932792e-24)
(-0.02879316641 -0.004023028856 2.96168837e-24)
(-0.02527138574 -0.005708352349 3.89556244e-23)
(-0.02073195081 -0.006707407471 -1.954782386e-24)
(-0.01558962683 -0.006854139187 3.75450799e-24)
(-0.01038513353 -0.006097464229 -9.741066459e-23)
(-0.005730272551 -0.004546186392 9.637741061e-23)
(-0.00223336895 -0.002507418058 -3.961323027e-25)
(-0.0001817787223 -0.0005023706551 4.061228316e-25)
(8.343318592e-05 0.0006099268795 0)
(-0.0004188236135 0.002935079595 -2.910498679e-25)
(-0.004647876087 0.008804017008 1.702166351e-23)
(-0.01137196202 0.01324042507 -8.282451615e-24)
(-0.01932729051 0.01579203923 -2.075243656e-25)
(-0.02747411485 0.01652999668 2.038710223e-25)
(-0.03511778632 0.01564441445 6.826596039e-27)
(-0.04171344789 0.01335997734 -1.221074882e-24)
(-0.04683571823 0.009919775223 -4.551619042e-25)
(-0.05014989005 0.005602437391 -1.063112037e-23)
(-0.05141231836 0.0007444224701 0)
(-0.05047793107 -0.00424178144 0)
(-0.04733706153 -0.008887189327 2.671033699e-23)
(-0.04215927822 -0.01268177104 2.813042264e-23)
(-0.03531437353 -0.01513605157 -1.646179133e-24)
(-0.02738996173 -0.01586189386 4.845918234e-23)
(-0.01917005823 -0.01467333949 9.419366763e-23)
(-0.01156090788 -0.01169360199 3.975783997e-23)
(-0.005465414232 -0.007450741791 4.142165544e-25)
(-0.001451102757 -0.002936042596 1.073614448e-25)
(-9.07291372e-05 0.0002258782654 0)
(-0.0005024623328 0.006045349034 -4.249015289e-23)
(-0.006402739748 0.01637075571 -1.692389497e-23)
(-0.01553502666 0.02355933808 8.209292736e-24)
(-0.02627912274 0.02744162812 0)
(-0.03728746773 0.02832102122 0)
(-0.04769037255 0.02658772241 0)
(-0.05679662697 0.02263120019 -4.468660758e-26)
(-0.06405383779 0.01683609175 -2.136444948e-24)
(-0.06901081397 0.009622185069 0)
(-0.07130827927 0.001491052451 1.635481528e-24)
(-0.07070853639 -0.006936502363 2.802802513e-25)
(-0.06713039455 -0.01493018835 -2.810650294e-25)
(-0.06069905503 -0.02166728249 0)
(-0.05180750306 -0.02631605839 4.133330118e-23)
(-0.04114991421 -0.02816070878 -4.681629399e-23)
(-0.02971970075 -0.02677372178 -2.761991652e-23)
(-0.01873716725 -0.0222153047 -3.960931266e-23)
(-0.009488030545 -0.01521922175 7.7958948e-25)
(-0.002976882438 -0.00729819433 9.790230048e-23)
(-0.0002318809315 -0.0008661670798 0)
(-0.0005316120014 0.01009501527 4.269676939e-23)
(-0.007983591244 0.02595219279 4.785129855e-25)
(-0.01939687449 0.03642882746 -4.675839055e-25)
(-0.03282382594 0.04185520865 0)
(-0.04664689171 0.0428948546 7.782673212e-25)
(-0.05985229681 0.04020074141 -7.674763616e-25)
(-0.0716329116 0.03434741582 3.672205013e-23)
(-0.08132750898 0.02585663907 1.848130471e-23)
(-0.0883660078 0.01527298228 6.238661051e-24)
(-0.09225469422 0.003246146948 -1.637386886e-24)
(-0.09260379823 -0.009407831377 0)
(-0.08917555561 -0.02167477893 4.370701722e-25)
(-0.08195979173 -0.03236744996 1.009039501e-23)
(-0.07126885186 -0.04021250183 -4.349365737e-23)
(-0.05782018486 -0.04402046466 1.932934725e-24)
(-0.04278582731 -0.04294829529 4.217378071e-23)
(-0.02775450301 -0.03683347089 -3.841938047e-25)
(-0.0145506243 -0.02652721087 0)
(-0.004859463554 -0.01408454517 5.436537621e-23)
(-0.0003641487669 -0.002846953054 -2.565063425e-22)
(-0.0005272211095 0.01499927847 9.841373646e-23)
(-0.009377924989 0.03739022139 -4.907634868e-25)
(-0.02288182618 0.05170222729 0)
(-0.03883043444 0.05894182939 0)
(-0.05538656809 0.06025574605 -8.732042748e-23)
(-0.0714287673 0.0566190114 -8.499012538e-23)
(-0.08606654084 0.0488016882 -4.067452165e-23)
(-0.09855085763 0.03743980473 -1.504328371e-23)
(-0.1081945282 0.0231598388 -5.368724898e-24)
(-0.1143444708 0.006709678863 -8.174894811e-24)
(-0.1164046202 -0.01093292089 6.601023913e-24)
(-0.1138937402 -0.02848944887 8.826522102e-24)
(-0.1065486977 -0.04437046086 -1.892319697e-23)
(-0.09446803883 -0.05675333673 4.606898618e-24)
(-0.07826856626 -0.063782987 0)
(-0.05922895181 -0.06393495555 -1.572941273e-23)
(-0.03933981776 -0.0565381643 -2.426810991e-26)
(-0.02114188793 -0.04235809209 0)
(-0.007318702853 -0.02398229435 -1.52063299e-22)
(-0.0005216165089 -0.005925544987 6.056240944e-22)
(-0.0004990832633 0.02064574655 -9.774327202e-23)
(-0.01052951109 0.05045438237 2.831968342e-22)
(-0.02582957419 0.06912511574 1.526853067e-22)
(-0.04402138209 0.07849257664 3.619257625e-24)
(-0.06310739092 0.08029476175 -7.319349239e-23)
(-0.08190405021 0.07588042761 9.043463578e-23)
(-0.09947763561 0.06621690622 -3.59019261e-24)
(-0.1150227353 0.05201695027 -1.729159216e-24)
(-0.1277519149 0.03392358473 2.524144453e-24)
(-0.1368472572 0.01270233221 7.382535164e-24)
(-0.1414710503 -0.01058782218 -6.500776841e-24)
(-0.1408248172 -0.03446024176 -9.787927769e-24)
(-0.1342745962 -0.05692771462 -3.261736384e-23)
(-0.1215450228 -0.07553315983 -3.661375184e-23)
(-0.1029672638 -0.08754260401 5.645721041e-25)
(-0.07976369693 -0.09039209587 0)
(-0.05426682324 -0.08244513705 0)
(-0.02987160847 -0.06397736813 -2.906042523e-24)
(-0.01066285103 -0.03798794686 2.970491262e-24)
(-0.0007350935813 -0.01050089486 1.027872999e-22)
(-0.0004479170361 0.02687250993 0)
(-0.01134923304 0.06480757515 2.001983051e-22)
(-0.02801599761 0.08829617192 8.962061883e-23)
(-0.04799857363 0.100123493 0)
(-0.06920601962 0.1027076527 1.569877235e-22)
(-0.09044373117 0.09781578348 0)
(-0.1107831667 0.08661102822 -1.428385787e-22)
(-0.1294093743 0.06983950239 6.515543488e-24)
(-0.1454771612 0.04808232169 0)
(-0.1580351794 0.02201755634 0)
(-0.1660133445 -0.007334438266 -1.374407071e-24)
(-0.1682671554 -0.03838839497 -9.316733016e-25)
(-0.1637064698 -0.06883975547 1.491974603e-22)
(-0.151520876 -0.09558275404 -4.70463453e-23)
(-0.1315134548 -0.1148298624 -2.560953797e-24)
(-0.1045596065 -0.1225703382 1.534710249e-24)
(-0.07309349776 -0.1155517943 -1.558919201e-24)
(-0.04135021402 -0.09283115406 0)
(-0.01525230236 -0.05740767551 3.20380302e-24)
(-0.001044309037 -0.01714714453 -1.012911808e-21)
(-0.0003744659187 0.03346304276 0)
(-0.01175005989 0.07998918477 -1.128285515e-22)
(-0.02920707961 0.1086390926 -6.191139786e-22)
(-0.05031745108 0.1232233975 -3.75530202e-22)
(-0.0729631753 0.1269097014 0)
(-0.09598960217 0.1219255614 4.119451551e-22)
(-0.1185273475 0.1096348616 1.260922735e-22)
(-0.1398146403 0.09078245655 -5.58182826e-24)
(-0.1590221532 0.06581393035 5.55420121e-24)
(-0.1751460991 0.03520881078 0)
(-0.1869559982 -0.0001967461923 2.912128198e-23)
(-0.1930172654 -0.0388975413 4.695832658e-24)
(-0.1917809922 -0.07843888225 -1.076806414e-22)
(-0.1817874443 -0.1151865341 8.004186117e-23)
(-0.1620570438 -0.1442599425 -2.419741687e-22)
(-0.1327061999 -0.1598548592 0)
(-0.09577888117 -0.1563112855 0)
(-0.05601633018 -0.130298106 0)
(-0.0214785912 -0.08381134975 0)
(-0.001500384635 -0.0266551625 5.572105404e-22)
(-0.0002873892959 0.04016077603 0)
(-0.01169359509 0.09543611176 -3.493011628e-22)
(-0.02924438221 0.1294073596 8.93279062e-22)
(-0.05060947323 0.1469299144 3.617174477e-22)
(-0.07370082764 0.1519748652 0)
(-0.09745151223 0.147275794 -3.862549679e-22)
(-0.1211069835 0.1344191927 -3.174427222e-23)
(-0.1440324772 0.1141393297 3.333102688e-22)
(-0.1655143216 0.08670006439 1.769473676e-22)
(-0.1846248506 0.05229123391 -4.060149932e-23)
(-0.2001325804 0.01141716185 1.656821659e-23)
(-0.2104622444 -0.03471424045 -8.265242713e-24)
(-0.2137208533 -0.08376563404 3.371856553e-22)
(-0.2078215503 -0.131875632 0)
(-0.1908238537 -0.1732756104 2.420910711e-22)
(-0.1616335736 -0.200259336 5.774762682e-24)
(-0.1211662687 -0.2040121676 -5.860881475e-24)
(-0.07384989779 -0.177211993 1.548442996e-22)
(-0.02971786826 -0.118864231 -5.435444556e-24)
(-0.002179545209 -0.04005398678 0)
(-0.0002117198826 0.04671639951 0)
(-0.01125001024 0.1105498099 0)
(-0.02815624343 0.1497354969 -5.022752657e-22)
(-0.04874479285 0.1701517573 -1.880996539e-23)
(-0.07100086739 0.1766257123 2.038377193e-23)
(-0.09399451633 0.1724526493 -2.014309708e-23)
(-0.1171434307 0.1594870972 -2.316882123e-23)
(-0.1400179499 0.1384805067 -3.029821444e-22)
(-0.1621328876 0.10951607 6.698613719e-23)
(-0.182795902 0.07245186834 4.513175454e-23)
(-0.2009835543 0.0273492877 -4.577718377e-23)
(-0.2152270256 -0.0250869775 0)
(-0.223556221 -0.08298351256 -7.839674302e-23)
(-0.2234632196 -0.1427257313 0)
(-0.2120679432 -0.1981820857 -3.73956046e-22)
(-0.1867434548 -0.2400773669 5.244950427e-22)
(-0.1464438303 -0.2560773386 0)
(-0.09394567724 -0.2331209482 -1.493989246e-22)
(-0.04022000996 -0.1639613644 1.937545559e-22)
(-0.003201100323 -0.05861063076 -3.411525066e-22)
(-0.0002015411492 0.05297585007 0)
(-0.01067261846 0.1248172368 9.182866005e-22)
(-0.02628446587 0.1687424553 -2.440684244e-23)
(-0.04501107797 0.1916455111 9.19333567e-22)
(-0.06494597615 0.1992921029 -2.512085359e-23)
(-0.0853662873 0.19561043 2.838843189e-23)
(-0.1059305668 0.1827886831 -2.812929258e-23)
(-0.12649242 0.1616583499 -1.660917449e-23)
(-0.1468996852 0.1321762291 -5.260227512e-22)
(-0.1668458157 0.0938964654 -8.906625846e-24)
(-0.1857303023 0.04640576225 9.660193592e-24)
(-0.2024781686 -0.01023784774 3.313077159e-22)
(-0.2154154615 -0.07499820302 -5.82073875e-22)
(-0.2220209719 -0.1450311829 0)
(-0.2188032107 -0.2146760604 8.887320618e-22)
(-0.2016257527 -0.2740016405 -4.940883288e-22)
(-0.1668639194 -0.3075811937 -1.572221994e-23)
(-0.1140220094 -0.2953811892 0)
(-0.05288482017 -0.2195802562 -1.89017934e-22)
(-0.004749188171 -0.08377277882 3.360582925e-22)
(-0.0003641984279 0.0590231762 1.551009851e-23)
(-0.01049573891 0.1379881481 -8.764193813e-22)
(-0.02441389481 0.1856804075 -1.157058845e-21)
(-0.04026724454 0.2101384722 -8.628984781e-22)
(-0.05630729745 0.2182348885 0)
(-0.07214856766 0.2146190251 3.513804684e-23)
(-0.08779221865 0.2018791947 -7.29486528e-23)
(-0.1034562815 0.1810005609 5.867883612e-23)
(-0.1193983894 0.1518997244 3.021366152e-22)
(-0.1357931565 0.1139150573 -1.12819557e-23)
(-0.1526082336 0.06621424992 0)
(-0.169452139 0.008177204003 -3.603929157e-22)
(-0.1852760612 -0.06015987611 7.51566731e-22)
(-0.1980448532 -0.1372746999 8.831702938e-22)
(-0.2043546277 -0.2189261872 -5.296625955e-22)
(-0.1990977624 -0.2959712895 5.16268822e-22)
(-0.1760605338 -0.3514072569 1.078231681e-23)
(-0.1300890635 -0.3584150763 -1.095546701e-23)
(-0.0668880331 -0.2843276493 -8.21537687e-23)
(-0.00708331992 -0.1169964409 0)
(-0.0009095771335 0.0654004142 -1.911486385e-23)
(-0.01167591639 0.1502816388 -1.326965296e-21)
(-0.02388882035 0.2000659531 1.09423725e-21)
(-0.03601340478 0.2244216934 6.734928869e-22)
(-0.04657308887 0.2316588214 6.014630774e-22)
(-0.05577038707 0.2272393675 6.643955942e-22)
(-0.06411245991 0.2141774867 -4.458676989e-23)
(-0.07227561907 0.1936494384 -3.461336749e-22)
(-0.08096973218 0.1656028327 2.152162198e-22)
(-0.09087192579 0.1292707369 0)
(-0.1025547477 0.08353082623 0)
(-0.1163622178 0.0272001088 2.655396624e-22)
(-0.1321589579 -0.0406200585 8.194326405e-23)
(-0.1489252335 -0.120012829 -2.821622922e-22)
(-0.1641284297 -0.2089300671 -5.411270824e-23)
(-0.1727877634 -0.3006992486 1.3019518e-22)
(-0.1670311316 -0.379332908 -3.400502561e-22)
(-0.1365292446 -0.4136451946 -1.593872094e-23)
(-0.08018250157 -0.3538326183 8.204149467e-23)
(-0.01050762293 -0.1594130559 -6.032166782e-22)
(-0.002260497936 0.07348883462 0)
(-0.01580355603 0.1626521753 2.145874142e-21)
(-0.02665042603 0.2117904708 0)
(-0.03422339728 0.2333947237 -1.351807662e-21)
(-0.03759398688 0.2377766793 6.18405331e-23)
(-0.03799685492 0.2312553497 -6.193093635e-22)
(-0.03668266187 0.2171898996 -4.756283513e-22)
(-0.0348903667 0.1968934491 8.301253684e-22)
(-0.03378838281 0.1703342394 -1.885697824e-22)
(-0.03449876831 0.1367221094 0)
(-0.03811573104 0.09479673853 0)
(-0.04564992799 0.04304286832 2.410616138e-23)
(-0.0579080464 -0.02013780982 -6.007197759e-22)
(-0.07514598853 -0.09620649976 -4.309566364e-22)
(-0.09645175267 -0.185555615 4.63786169e-22)
(-0.1183462641 -0.2853567751 -6.488733276e-22)
(-0.1332715402 -0.3838386514 9.11994487e-23)
(-0.1265351 -0.4504358693 2.937358965e-23)
(-0.08899154128 -0.4198536356 5.660447745e-22)
(-0.01526917934 -0.2111719721 6.020799511e-22)
(-0.005180899288 0.08598045982 0)
(-0.02525550721 0.1766291181 1.465579507e-22)
(-0.0348340808 0.220596153 -4.917143347e-23)
(-0.03640014039 0.2354859316 7.642928622e-22)
(-0.03018483252 0.234340672 -7.005376168e-22)
(-0.01916579663 0.2241603856 4.746479686e-23)
(-0.005615152793 0.2083525828 -1.018609543e-22)
(0.008569604836 0.1881241082 -3.389887971e-22)
(0.02179885828 0.1633911275 2.062822395e-22)
(0.03262781084 0.1333242746 0)
(0.03958458156 0.09664086379 0)
(0.04117012874 0.05174056667 -2.90266727e-22)
(0.03578483477 -0.003255395552 0)
(0.02198184385 -0.07058360628 -5.512186124e-22)
(-0.001264848567 -0.1525735488 -1.492376775e-23)
(-0.03310470091 -0.250594983 2.559739084e-23)
(-0.06909235993 -0.3599341501 2.203139579e-22)
(-0.09227827124 -0.4575424512 4.788109385e-24)
(-0.08718089975 -0.4698129399 -5.789416434e-22)
(-0.02103127155 -0.2698972286 0)
(-0.01111631547 0.1085974982 0)
(-0.04248901924 0.1947151678 -8.848477121e-22)
(-0.04795529074 0.22581955 -5.411038494e-22)
(-0.03919536132 0.2282135536 4.543815433e-22)
(-0.01877830491 0.2182328112 -1.709982916e-24)
(0.007664311731 0.2028220333 -4.561048301e-23)
(0.03667993148 0.1847619753 5.696680481e-22)
(0.06582998294 0.1647118206 -2.76688985e-23)
(0.0932713056 0.1423128176 -2.069781278e-22)
(0.1173891571 0.1166274944 3.142212935e-23)
(0.1365461649 0.08641143994 -3.425916582e-23)
(0.148966923 0.05017669171 -3.690593539e-23)
(0.1525275747 0.006159168531 3.205633011e-22)
(0.1449367002 -0.04796126868 6.119605152e-22)
(0.1235159765 -0.1153052895 -5.10117044e-22)
(0.08633533217 -0.2004195637 -1.616056969e-22)
(0.03199089092 -0.3067806582 1.531309366e-22)
(-0.02362123304 -0.4239837136 7.293655101e-23)
(-0.06492413118 -0.4871612779 1.913292003e-21)
(-0.02509971714 -0.3291544737 2.954991905e-21)
(-0.02004680473 0.1460727413 -4.390207021e-23)
(-0.064164063 0.2112955865 4.417379768e-23)
(-0.0507023071 0.2177300488 1.000188364e-21)
(-0.0193409753 0.2014679983 -8.2705564e-24)
(0.02414464765 0.1809076171 0)
(0.07154121889 0.1606933336 4.36372094e-23)
(0.1190703387 0.141649548 -2.273851316e-22)
(0.1644767309 0.123318181 -9.027954685e-23)
(0.2062251132 0.1048117285 3.680733696e-23)
(0.2429642994 0.08507140047 -1.70165471e-23)
(0.273220755 0.06296147687 3.429969889e-23)
(0.2952536082 0.03726293874 -6.592680183e-23)
(0.3066971036 0.006535068948 -9.303904782e-23)
(0.3049738292 -0.0308776996 1.517043794e-22)
(0.2863936232 -0.07786290892 0)
(0.247056807 -0.1399300363 1.505609818e-22)
(0.1810922223 -0.2266299749 2.560014128e-22)
(0.09604450138 -0.3443894944 0)
(-0.00669761648 -0.4552210214 -3.67563547e-21)
(-0.01922408214 -0.3777537585 -2.892621363e-21)
(-0.02591951346 0.2276828809 -9.514204045e-22)
(-0.03998324619 0.2238216535 -1.388976275e-22)
(0.03656136844 0.1810585369 -2.335581379e-22)
(0.109050303 0.1451059096 -1.193741881e-22)
(0.181719118 0.1172445494 -4.295825075e-23)
(0.2490090721 0.09627907574 9.783178432e-23)
(0.3100336691 0.08002510331 -1.408591818e-22)
(0.3646209321 0.06656815244 1.297175022e-22)
(0.4126252481 0.05449178813 -8.620118944e-23)
(0.4536250287 0.04270894874 1.132189054e-25)
(0.4867878711 0.03032298397 1.527741552e-23)
(0.5107451353 0.01652901861 7.997203975e-23)
(0.5236597447 0.0005365145276 -1.811123597e-22)
(0.5231798006 -0.01863373226 -1.617145931e-22)
(0.5052323414 -0.04286478934 -4.262951656e-23)
(0.4658715076 -0.07633231168 0)
(0.3952696492 -0.1286089383 -1.846478461e-22)
(0.2916071043 -0.2208468098 8.148764492e-22)
(0.1197455102 -0.3525016902 1.631601762e-21)
(0.02670547248 -0.3775497978 2.172656001e-21)
(0.2142894467 0.1347447212 9.864988957e-22)
(0.2776311183 0.09870503601 0)
(0.4316592286 0.05810414833 -2.594320491e-22)
(0.5304749337 0.03846264958 -1.741666213e-22)
(0.6016965742 0.02623419111 0)
(0.6571198952 0.01831923458 -6.009090179e-23)
(0.7015213598 0.0131360082 6.377999743e-23)
(0.7376042498 0.009542126033 -1.800156083e-23)
(0.7669368415 0.00680446331 2.885973508e-23)
(0.7902106684 0.004464743655 2.315032749e-23)
(0.8074555009 0.00222131968 0)
(0.8182621354 -0.0001500750856 -2.873032525e-23)
(0.8216499714 -0.002723848336 0)
(0.8162394196 -0.005712668663 2.738149777e-23)
(0.7991333148 -0.009611382818 1.421690547e-23)
(0.7679986344 -0.01500255104 -5.799405165e-23)
(0.7106555754 -0.02502519953 -2.535661549e-22)
(0.6235183978 -0.04204285408 -6.918102592e-22)
(0.4230091019 -0.09182968081 0)
(0.2705674689 -0.1524021841 -2.119483864e-21)
)
;

boundaryField
{
    movingWall
    {
        type            fixedValue;
        value           uniform (1 0 0);
    }
    fixedWalls
    {
        type            fixedValue;
        value           uniform (0 0 0);
    }
    frontAndBack
    {
        type            empty;
    }
}


// ************************************************************************* //
