/*--------------------------------*- C++ -*----------------------------------*\
  =========                 |
  \\      /  F ield         | OpenFOAM: The Open Source CFD Toolbox
   \\    /   O peration     | Website:  https://openfoam.org
    \\  /    A nd           | Version:  13
     \\/     M anipulation  |
\*---------------------------------------------------------------------------*/
FoamFile
{
    format      ascii;
    class       volVectorField;
    location    "41";
    object      U;
}
// * * * * * * * * * * * * * * * * * * * * * * * * * * * * * * * * * * * * * //

dimensions      [0 1 -1 0 0 0 0];

internalField   nonuniform List<vector> 
400
(
(0.0001826724928 -0.0001865644226 0)
(-0.000137921929 3.013144101e-05 0)
(-0.001533550959 0.0002683824731 0)
(-0.003785444799 0.0004194347777 0)
(-0.006545580449 0.0004992821674 0)
(-0.009512576153 0.000529728694 0)
(-0.01243636101 0.0005205418103 0)
(-0.01508326049 0.0004706505169 0)
(-0.01721261311 0.0003732648225 0)
(-0.01857752067 0.000222969198 0)
(-0.01895222719 2.300778738e-05 0)
(-0.01818156766 -0.0002091943881 0)
(-0.01624042915 -0.0004396438007 0)
(-0.01328465069 -0.0006217298786 0)
(-0.009671138133 -0.0007067870012 0)
(-0.005926960924 -0.0006598649728 0)
(-0.002658846754 -0.000474812425 0)
(-0.0004087040287 -0.0001822206877 0)
(0.0005393157084 0.0001368609481 0)
(0.0003094502289 0.000302476109 0)
(-4.728167569e-05 0.0001368683402 0)
(-0.002078176652 0.001931702694 0)
(-0.006429995213 0.003758323019 0)
(-0.01257705499 0.005021411728 0)
(-0.01976107309 0.005686302896 0)
(-0.02731103738 0.005829435862 0)
(-0.03462182801 0.005501394367 0)
(-0.0411112606 0.004708539418 0)
(-0.04619943087 0.0034410683 0)
(-0.04932794612 0.00171840712 0)
(-0.0500239291 -0.000366610094 0)
(-0.04799741058 -0.002619398801 0)
(-0.04324960249 -0.004742715235 0)
(-0.03615971272 -0.006373358174 0)
(-0.02751299586 -0.007158499862 0)
(-0.01843623059 -0.00686097956 0)
(-0.0102194957 -0.005465833263 0)
(-0.004032605441 -0.003255329667 0)
(-0.000577120134 -0.0008616683076 0)
(0.0002213589667 0.0005885210279 0)
(-0.0003531893038 0.001716173174 0)
(-0.004483418702 0.006462102508 0)
(-0.01186260369 0.0106674646 0)
(-0.02158669075 0.01351119948 0)
(-0.03255845181 0.01494432328 0)
(-0.04386578805 0.01509440459 0)
(-0.05467013595 0.01405070925 0)
(-0.06415497502 0.0118355465 0)
(-0.07151801483 0.008462288629 0)
(-0.0760072517 0.004025765238 0)
(-0.07700325784 -0.00121329144 0)
(-0.07413465667 -0.006778217933 0)
(-0.06740352119 -0.01198273064 0)
(-0.05729015333 -0.0160098959 0)
(-0.04479915738 -0.0180702635 0)
(-0.03140322989 -0.01762369049 0)
(-0.018844101 -0.01461500823 0)
(-0.00878857253 -0.00964731772 0)
(-0.00241843734 -0.004055300275 0)
(3.495155745e-05 2.350684065e-05 0)
(-0.0006304132198 0.004591947817 0)
(-0.006806266302 0.01366606667 0)
(-0.01708982915 0.02090957968 0)
(-0.03013037524 0.02561530779 0)
(-0.04448956747 0.02784817105 0)
(-0.05907445479 0.02782711369 0)
(-0.07290039168 0.02569147354 0)
(-0.08500966924 0.02148759092 0)
(-0.0944630717 0.01526755023 0)
(-0.1003783025 0.007227599452 0)
(-0.1020131702 -0.002167298216 0)
(-0.09888293634 -0.01211063519 0)
(-0.09089636901 -0.02146093506 0)
(-0.07848935579 -0.02885395122 0)
(-0.06272150968 -0.03293761826 0)
(-0.04527989462 -0.03272437103 0)
(-0.02831570345 -0.02799800536 0)
(-0.01407745605 -0.01964114075 0)
(-0.004430618263 -0.009746161973 0)
(-0.0001253989825 -0.00151694063 0)
(-0.0008692691664 0.008647965299 0)
(-0.00888436763 0.02331612389 0)
(-0.02180486183 0.03415421526 0)
(-0.03784110419 0.04089446532 0)
(-0.05523507198 0.04388924682 0)
(-0.07275810935 0.04352494353 0)
(-0.08934599012 0.04001802904 0)
(-0.1039727026 0.03344501795 0)
(-0.1156240259 0.02389330055 0)
(-0.1233206218 0.01164954931 0)
(-0.126185914 -0.00263426699 0)
(-0.1235540603 -0.0178363602 0)
(-0.1151166802 -0.03235135013 0)
(-0.1011015603 -0.04420539057 0)
(-0.08245584401 -0.05134151923 0)
(-0.0609669004 -0.05210327252 0)
(-0.03920162827 -0.04586550482 0)
(-0.02015905749 -0.0336193444 0)
(-0.006679695269 -0.01821506488 0)
(-0.0002717387151 -0.00409071411 0)
(-0.001066101637 0.01372373848 0)
(-0.01063669621 0.03511079228 0)
(-0.02581608943 0.05004944664 0)
(-0.04443534065 0.0589838932 0)
(-0.0644692018 0.06272759842 0)
(-0.08460135531 0.06192611812 0)
(-0.1037459977 0.05691035514 0)
(-0.1208708141 0.04778958524 0)
(-0.134938689 0.03466278141 0)
(-0.1448995543 0.01785912713 0)
(-0.1497280589 -0.001849468696 0)
(-0.148510889 -0.02309513922 0)
(-0.140599072 -0.04384983554 0)
(-0.1258373234 -0.06149342297 0)
(-0.1048586355 -0.07310077183 0)
(-0.07937817376 -0.07603485117 0)
(-0.05232655754 -0.0688549729 0)
(-0.02761726719 -0.05232218441 0)
(-0.009447133688 -0.02998934366 0)
(-0.0004469481641 -0.007848074115 0)
(-0.001213345428 0.01962696983 0)
(-0.01198886336 0.04866698602 0)
(-0.02894611332 0.06814779666 0)
(-0.04962256134 0.07944161745 0)
(-0.07179604804 0.0839770337 0)
(-0.09411334529 0.08275186067 0)
(-0.1155213683 0.07625357997 0)
(-0.1350403972 0.06462428536 0)
(-0.1516656033 0.04793583878 0)
(-0.1643160585 0.02648344182 0)
(-0.1718287442 0.001050139039 0)
(-0.1730130517 -0.02687394055 0)
(-0.1667902783 -0.05493753278 0)
(-0.152456499 -0.0798926959 0)
(-0.1300892744 -0.09780483549 0)
(-0.1010521073 -0.104686728 0)
(-0.06843324019 -0.09769713374 0)
(-0.03711404124 -0.07676594911 0)
(-0.0130942211 -0.04591998401 0)
(-0.0007024767624 -0.01311846091 0)
(-0.001302358835 0.02612678418 0)
(-0.01286932886 0.06351417593 0)
(-0.03102280607 0.08788460802 0)
(-0.05309945153 0.1016917237 0)
(-0.07675419339 0.1071058206 0)
(-0.1006448196 0.1055656417 0)
(-0.1238014033 0.09776173147 0)
(-0.1453562532 0.08387215093 0)
(-0.1644031106 0.06389936287 0)
(-0.1798982627 0.03801469795 0)
(-0.1906024402 0.006876541123 0)
(-0.1950828863 -0.0280729908 0)
(-0.1918127228 -0.06433180326 0)
(-0.1794264775 -0.09814106985 0)
(-0.1571951743 -0.1245123285 0)
(-0.1257382836 -0.1377646154 0)
(-0.08786620673 -0.1329204591 0)
(-0.04922491521 -0.1081023415 0)
(-0.01801602933 -0.06717841503 0)
(-0.001101541786 -0.02043552933 0)
(-0.001328437655 0.03295772538 0)
(-0.0132314497 0.07910324055 0)
(-0.0319156823 0.1085778461 0)
(-0.05460122749 0.1249991159 0)
(-0.0788862991 0.1313765929 0)
(-0.1034803017 0.1296742823 0)
(-0.1275417323 0.1208399635 0)
(-0.1503749563 0.1051028518 0)
(-0.1712513503 0.08236577246 0)
(-0.1892648852 0.05259414571 0)
(-0.2032189127 0.01618211586 0)
(-0.2115603392 -0.02567473798 0)
(-0.2124030973 -0.07057151695 0)
(-0.2037115619 -0.1144912143 0)
(-0.1837583207 -0.1515324181 0)
(-0.1519711769 -0.1741407283 0)
(-0.1102039349 -0.1744387421 0)
(-0.06424893615 -0.1473379651 0)
(-0.02461169843 -0.09517782152 0)
(-0.001727290003 -0.03055039361 0)
(-0.00129821744 0.03984247927 0)
(-0.0130920075 0.09483953462 0)
(-0.03160352385 0.1294486567 0)
(-0.05399734807 0.1484646867 0)
(-0.07786628929 0.1558109956 0)
(-0.102005691 0.1540605133 0)
(-0.1257439758 0.1444840255 0)
(-0.1486164165 0.1273974789 0)
(-0.1701578805 0.1026014197 0)
(-0.1897233738 0.0698047327 0)
(-0.2063258817 0.02902344895 0)
(-0.2184954202 -0.01899221293 0)
(-0.2241994561 -0.07223466471 0)
(-0.2208799475 -0.1268252373 0)
(-0.2057727108 -0.1763459831 0)
(-0.1767383374 -0.2115207302 0)
(-0.1338487539 -0.2210259826 0)
(-0.08193163207 -0.1948604503 0)
(-0.03322888224 -0.1313827982 0)
(-0.002693592564 -0.04443907518 0)
(-0.001239575612 0.0465403744 0)
(-0.01258283749 0.1101522538 0)
(-0.03026344485 0.1496749325 0)
(-0.05141518193 0.17105303 0)
(-0.07366206115 0.1791944201 0)
(-0.09592455971 0.1773696502 0)
(-0.1177469813 0.1672498993 0)
(-0.1389527422 0.1492956538 0)
(-0.1594213606 0.1232384367 0)
(-0.1788917784 0.08852912787 0)
(-0.1967694737 0.04474791506 0)
(-0.2119179228 -0.007954147688 0)
(-0.2224749869 -0.06828751957 0)
(-0.2256843125 -0.1329888052 0)
(-0.217951009 -0.1957911163 0)
(-0.195439048 -0.2463197523 0)
(-0.1556913768 -0.2698127332 0)
(-0.1010893186 -0.2497752734 0)
(-0.04403621874 -0.1769438473 0)
(-0.004154915813 -0.06329123132 0)
(-0.001215050348 0.05292962729 0)
(-0.0120151447 0.1246077698 0)
(-0.02837067215 0.1684818987 0)
(-0.04736631969 0.1916556637 0)
(-0.06669178579 0.2001269024 0)
(-0.08546232437 0.1979632071 0)
(-0.1035064427 0.1873161273 0)
(-0.1209951808 0.1688596252 0)
(-0.1382165984 0.1423185069 0)
(-0.1553843367 0.1069349662 0)
(-0.1724437208 0.06186665199 0)
(-0.1888461893 0.006595947159 0)
(-0.203235887 -0.05852001186 0)
(-0.2131129019 -0.131342874 0)
(-0.2145637155 -0.206601099 0)
(-0.2023321108 -0.2739450655 0)
(-0.1710681989 -0.3160519654 0)
(-0.1192260862 -0.3091735485 0)
(-0.05677713903 -0.2320860144 0)
(-0.006308805795 -0.08844991993 0)
(-0.00134336733 0.05913619213 0)
(-0.01196320464 0.1380682677 0)
(-0.0267989482 0.1852570098 0)
(-0.04284041155 0.2091711513 0)
(-0.0579109396 0.2171017304 0)
(-0.07146423692 0.2140236312 0)
(-0.08373047602 0.2026277117 0)
(-0.09529876761 0.1838536609 0)
(-0.1069054946 0.1574857571 0)
(-0.1192759828 0.122639942 0)
(-0.1329635238 0.07813556953 0)
(-0.1481380202 0.02283502852 0)
(-0.1642579003 -0.04389619301 0)
(-0.1796004539 -0.1214072786 0)
(-0.1906436341 -0.2062517455 0)
(-0.1914853039 -0.2895905445 0)
(-0.1741943379 -0.3534310281 0)
(-0.1323438037 -0.3676098851 0)
(-0.07038614052 -0.2952203163 0)
(-0.009376948161 -0.1212297524 0)
(-0.001840046463 0.06573211912 0)
(-0.0133829963 0.1508877491 0)
(-0.02690483268 0.1996509606 0)
(-0.03930669423 0.2225532127 0)
(-0.04872968128 0.2285610439 0)
(-0.05524756638 0.2236560752 0)
(-0.05968596309 0.2110610722 0)
(-0.06314006536 0.1919734276 0)
(-0.06680775248 0.1662676033 0)
(-0.0718976561 0.1330133289 0)
(-0.07953569134 0.09082097373 0)
(-0.09062086685 0.03809425244 0)
(-0.1055627669 -0.02667634445 0)
(-0.1238109519 -0.104357764 0)
(-0.1430350745 -0.1938799282 0)
(-0.1578788366 -0.2894230636 0)
(-0.1589785105 -0.3750581877 0)
(-0.1350956554 -0.4171624794 0)
(-0.08250981194 -0.3619050154 0)
(-0.01351287774 -0.1624534375 0)
(-0.003077462145 0.07402834055 0)
(-0.01776021452 0.1641123137 0)
(-0.03051038389 0.2115798002 0)
(-0.03844566568 0.2307327699 0)
(-0.04051211152 0.2328382322 0)
(-0.03791135747 0.2248933888 0)
(-0.03234595733 0.2105034209 0)
(-0.0255154203 0.1910030434 0)
(-0.01906496393 0.1663122787 0)
(-0.0146049402 0.1354929332 0)
(-0.01371591826 0.09707273942 0)
(-0.01790725624 0.04922063893 0)
(-0.02848164492 -0.01012921124 0)
(-0.04620411528 -0.08304509905 0)
(-0.07053798417 -0.1708354965 0)
(-0.09800577146 -0.2717363016 0)
(-0.1197396508 -0.3749118712 0)
(-0.1211213112 -0.448332242 0)
(-0.08900206897 -0.4241857582 0)
(-0.01849233841 -0.2116472129 0)
(-0.005573045198 0.08657146084 0)
(-0.02709795556 0.1795732065 0)
(-0.03934816409 0.2208641106 0)
(-0.04092191843 0.2321568105 0)
(-0.03281287437 0.227776287 0)
(-0.0182018934 0.2154294113 0)
(3.329119718e-06 0.1986938646 0)
(0.01944010927 0.1787597307 0)
(0.03808120135 0.15545011 0)
(0.05404505879 0.1277970042 0)
(0.06546646747 0.09433796062 0)
(0.07042376138 0.05323172418 0)
(0.06693190218 0.002257759299 0)
(0.05306741607 -0.06125403275 0)
(0.0274321164 -0.1403500993 0)
(-0.009356596386 -0.2373882663 0)
(-0.05123966781 -0.349073041 0)
(-0.08313752998 -0.4514966403 0)
(-0.08343440461 -0.4710606668 0)
(-0.02311320667 -0.2666794274 0)
(-0.009892383105 0.1087153647 0)
(-0.04295409328 0.1995946559 0)
(-0.05214907261 0.2257686354 0)
(-0.04165562414 0.2233199526 0)
(-0.01767761414 0.209610523 0)
(0.01351473158 0.1918579929 0)
(0.04774407129 0.1727540673 0)
(0.08217801472 0.1528619089 0)
(0.1146512559 0.1316713954 0)
(0.1432608707 0.1081175024 0)
(0.1661035094 0.0808094213 0)
(0.1811020311 0.04808271771 0)
(0.1858852783 0.007929270555 0)
(0.1777488685 -0.04225432109 0)
(0.1537450823 -0.1061519443 0)
(0.1114996602 -0.1890603234 0)
(0.05232161712 -0.2959539045 0)
(-0.0125154703 -0.4177051554 0)
(-0.05675210701 -0.4889169497 0)
(-0.02465522177 -0.3240091724 0)
(-0.01780920761 0.1516770269 0)
(-0.06128498975 0.2236394776 0)
(-0.05223270193 0.2176808542 0)
(-0.01429097849 0.1949716285 0)
(0.0355199421 0.1711043813 0)
(0.08875038903 0.1491255701 0)
(0.1414133065 0.1294301681 0)
(0.1912210578 0.1114253118 0)
(0.2365762209 0.09407192099 0)
(0.2760773409 0.07618863287 0)
(0.3081925012 0.05654116869 0)
(0.3310525791 0.03380523088 0)
(0.3422787695 0.006463418136 0)
(0.3388756654 -0.02746795206 0)
(0.3170355851 -0.07114879396 0)
(0.2721745283 -0.1305162039 0)
(0.2000960331 -0.2164774343 0)
(0.1029683481 -0.3383443575 0)
(0.004347710629 -0.4567761357 0)
(-0.0159644148 -0.3693109114 0)
(-0.02422043768 0.2082726172 0)
(-0.03790963325 0.2303642963 0)
(0.03728267986 0.1765406949 0)
(0.1250748795 0.136865894 0)
(0.2058605423 0.1090755429 0)
(0.2780547289 0.08823340478 0)
(0.3423213708 0.07213856011 0)
(0.3989461495 0.05920149634 0)
(0.4479754832 0.04804074568 0)
(0.489177521 0.03752446994 0)
(0.5218793044 0.0267112603 0)
(0.5448465808 0.01475322272 0)
(0.556196504 0.0007770877824 0)
(0.5532767182 -0.0162891672 0)
(0.5322723148 -0.03828409686 0)
(0.4877179679 -0.0691475828 0)
(0.4111253798 -0.1190986731 0)
(0.2908756056 -0.2093515717 0)
(0.133125353 -0.3382888743 0)
(0.03877072174 -0.3403626063 0)
(0.2418875627 0.109134617 0)
(0.3134605183 0.09711960776 0)
(0.4443281463 0.05696837656 0)
(0.5496391848 0.03510687963 0)
(0.6240730939 0.02373576333 0)
(0.6796195665 0.0167054648 0)
(0.7234990225 0.01197605834 0)
(0.7588084 0.008691147264 0)
(0.7870976621 0.006253655687 0)
(0.8091645639 0.004231862718 0)
(0.8251873679 0.002331059841 0)
(0.8347957672 0.0003435162373 0)
(0.837127228 -0.001907202582 0)
(0.8307618193 -0.004589104587 0)
(0.8133969738 -0.008027714267 0)
(0.7811396817 -0.01288539955 0)
(0.7256967824 -0.02123125148 0)
(0.6298663046 -0.0380943726 0)
(0.4592688929 -0.08555121439 0)
(0.3048935836 -0.1256978626 0)
)
;

boundaryField
{
    movingWall
    {
        type            fixedValue;
        value           uniform (1 0 0);
    }
    fixedWalls
    {
        type            fixedValue;
        value           uniform (0 0 0);
    }
    frontAndBack
    {
        type            empty;
    }
}


// ************************************************************************* //
