/*--------------------------------*- C++ -*----------------------------------*\
  =========                 |
  \\      /  F ield         | OpenFOAM: The Open Source CFD Toolbox
   \\    /   O peration     | Website:  https://openfoam.org
    \\  /    A nd           | Version:  13
     \\/     M anipulation  |
\*---------------------------------------------------------------------------*/
FoamFile
{
    format      ascii;
    class       volVectorField;
    location    "41";
    object      U_0;
}
// * * * * * * * * * * * * * * * * * * * * * * * * * * * * * * * * * * * * * //

dimensions      [0 1 -1 0 0 0 0];

internalField   nonuniform List<vector> 
400
(
(1.100425089e-05 -3.783301196e-05 0)
(-0.0006660969366 0.0004130421503 -1.551173625e-23)
(-0.002185374653 0.000920392945 0)
(-0.00404783323 0.001312781239 0)
(-0.005971869452 0.00153506793 6.845477915e-25)
(-0.007762783531 0.001569850315 4.150872913e-24)
(-0.009284543453 0.001423563784 -7.373019575e-24)
(-0.01043593851 0.001119720205 7.531091871e-24)
(-0.01113681267 0.0006960779955 -2.095398995e-25)
(-0.01132711248 0.0002030744716 -3.994691509e-24)
(-0.01097177558 -0.0003002336483 5.803656886e-24)
(-0.01007233079 -0.000747514195 -5.929609184e-23)
(-0.008679881255 -0.001075560157 -6.55274032e-23)
(-0.006902852126 -0.001233043049 -7.784358731e-23)
(-0.00491073628 -0.00119263867 4.573611988e-24)
(-0.00292723091 -0.0009619212054 -4.137953039e-24)
(-0.001205300053 -0.0005912120275 -1.998767791e-22)
(-1.90708518e-05 -0.0001698823563 0)
(0.0005181517564 0.0001720869774 1.50965204e-25)
(0.0002227506128 0.0003059794324 -2.553553839e-24)
(-0.0002633639174 0.0008289686663 1.383077677e-25)
(-0.002703306272 0.003383841736 1.560968634e-23)
(-0.006907275973 0.005604499784 1.555140738e-25)
(-0.01195231768 0.007008205675 -8.495362893e-25)
(-0.01713504403 0.007553776333 1.16213199e-24)
(-0.02197535687 0.00729420268 1.306865803e-23)
(-0.02611076418 0.006321897542 1.38858719e-24)
(-0.02926564839 0.004754193974 -7.282803276e-24)
(-0.03122672781 0.00273714959 1.01529074e-23)
(-0.03184200597 0.000452402628 4.510043294e-24)
(-0.03102761181 -0.001884146243 -6.318932792e-24)
(-0.02879316631 -0.004023028859 2.96168837e-24)
(-0.02527138551 -0.00570835251 3.89556244e-23)
(-0.02073195066 -0.006707407648 -1.954782386e-24)
(-0.01558962685 -0.006854139304 3.75450799e-24)
(-0.01038513361 -0.006097464321 -9.741066459e-23)
(-0.005730272496 -0.00454618654 9.637741061e-23)
(-0.002233368698 -0.002507418295 -3.961323027e-25)
(-0.0001817783646 -0.0005023709203 4.061228316e-25)
(8.343338522e-05 0.0006099267268 0)
(-0.000418823587 0.002935079557 -2.910498679e-25)
(-0.00464787598 0.008804016818 1.702166351e-23)
(-0.01137196191 0.01324042497 -8.282451616e-24)
(-0.0193272906 0.0157920394 -2.075243656e-25)
(-0.02747411506 0.01652999698 2.038710223e-25)
(-0.03511778643 0.0156444146 6.826596039e-27)
(-0.0417134478 0.01335997716 -1.221074881e-24)
(-0.04683571802 0.009919774811 -4.551619041e-25)
(-0.0501498899 0.005602437026 -1.063112037e-23)
(-0.05141231836 0.000744422338 0)
(-0.05047793113 -0.004241781318 0)
(-0.04733706157 -0.008887189097 2.671033699e-23)
(-0.04215927824 -0.01268177088 2.813042264e-23)
(-0.03531437358 -0.01513605157 -1.646179133e-24)
(-0.02738996183 -0.01586189402 4.845918234e-23)
(-0.01917005831 -0.01467333971 9.419366763e-23)
(-0.01156090782 -0.01169360222 3.975783997e-23)
(-0.005465413975 -0.007450741995 4.142165544e-25)
(-0.001451102411 -0.002936042788 1.073614448e-25)
(-9.072895561e-05 0.0002258780995 0)
(-0.0005024623854 0.006045349092 -4.249015289e-23)
(-0.006402739742 0.01637075563 -1.692389497e-23)
(-0.01553502645 0.02355933782 8.209292736e-24)
(-0.02627912255 0.02744162793 0)
(-0.03728746774 0.02832102129 0)
(-0.04769037276 0.02658772269 0)
(-0.0567966272 0.02263120045 -4.468660757e-26)
(-0.06405383788 0.01683609178 -2.136444948e-24)
(-0.06901081389 0.009622184884 0)
(-0.07130827906 0.001491052205 1.635481528e-24)
(-0.07070853617 -0.006936502496 2.802802513e-25)
(-0.06713039444 -0.01493018834 -2.810650294e-25)
(-0.06069905511 -0.0216672824 0)
(-0.05180750328 -0.02631605831 4.133330118e-23)
(-0.04114991446 -0.02816070877 -4.681629399e-23)
(-0.02971970088 -0.02677372182 -2.761991652e-23)
(-0.01873716718 -0.02221530473 -3.960931266e-23)
(-0.009488030303 -0.01521922178 7.795894799e-25)
(-0.002976882169 -0.007298194402 9.790230048e-23)
(-0.0002318808124 -0.000866167194 0)
(-0.0005316121142 0.01009501533 4.269676939e-23)
(-0.007983591381 0.02595219297 4.785129855e-25)
(-0.01939687447 0.03642882744 -4.675839055e-25)
(-0.03282382575 0.04185520842 0)
(-0.04664689152 0.04289485435 7.782673212e-25)
(-0.05985229679 0.04020074133 -7.674763616e-25)
(-0.07163291179 0.03434741594 3.672205013e-23)
(-0.08132750922 0.02585663924 1.848130471e-23)
(-0.0883660079 0.01527298237 6.238661051e-24)
(-0.09225469409 0.003246146927 -1.637386886e-24)
(-0.09260379796 -0.009407831476 0)
(-0.08917555538 -0.02167477902 4.370701722e-25)
(-0.0819597917 -0.03236744998 1.009039501e-23)
(-0.07126885205 -0.04021250175 -4.349365737e-23)
(-0.05782018514 -0.04402046448 1.932934725e-24)
(-0.04278582749 -0.04294829507 4.217378071e-23)
(-0.02775450299 -0.03683347068 -3.841938047e-25)
(-0.01455062414 -0.02652721073 0)
(-0.004859463404 -0.01408454514 5.436537621e-23)
(-0.0003641487135 -0.002846953095 -2.565063425e-22)
(-0.0005272211365 0.01499927836 9.841373646e-23)
(-0.009377925047 0.03739022148 -4.907634868e-25)
(-0.02288182629 0.05170222746 0)
(-0.03883043443 0.05894182943 0)
(-0.05538656796 0.06025574594 -8.732042748e-23)
(-0.07142876716 0.05661901123 -8.499012538e-23)
(-0.08606654085 0.04880168811 -4.067452165e-23)
(-0.09855085779 0.03743980476 -1.504328371e-23)
(-0.1081945284 0.02315983889 -5.368724898e-24)
(-0.1143444708 0.006709678919 -8.174894811e-24)
(-0.11640462 -0.01093292091 6.601023913e-24)
(-0.11389374 -0.02848944896 8.826522102e-24)
(-0.1065486976 -0.04437046093 -1.892319697e-23)
(-0.09446803888 -0.0567533367 4.606898618e-24)
(-0.07826856644 -0.06378298683 0)
(-0.05922895198 -0.06393495528 -1.572941273e-23)
(-0.03933981782 -0.05653816403 -2.426810991e-26)
(-0.0211418879 -0.04235809192 0)
(-0.007318702812 -0.02398229429 -1.52063299e-22)
(-0.0005216164978 -0.005925544984 6.056240944e-22)
(-0.0004990831689 0.02064574639 -9.774327202e-23)
(-0.01052951098 0.05045438221 2.831968342e-22)
(-0.0258295742 0.06912511574 1.526853067e-22)
(-0.04402138214 0.07849257674 3.619257626e-24)
(-0.06310739091 0.08029476181 -7.319349239e-23)
(-0.08190405015 0.07588042759 9.043463578e-23)
(-0.09947763558 0.06621690616 -3.59019261e-24)
(-0.1150227354 0.05201695022 -1.729159216e-24)
(-0.127751915 0.03392358471 2.524144453e-24)
(-0.1368472573 0.0127023322 7.382535164e-24)
(-0.1414710502 -0.01058782222 -6.500776841e-24)
(-0.140824817 -0.03446024185 -9.787927769e-24)
(-0.134274596 -0.05692771473 -3.261736384e-23)
(-0.1215450228 -0.07553315991 -3.661375184e-23)
(-0.1029672639 -0.08754260399 5.645721041e-25)
(-0.07976369703 -0.09039209576 0)
(-0.05426682332 -0.08244513691 0)
(-0.02987160851 -0.06397736804 -2.906042523e-24)
(-0.01066285105 -0.03798794682 2.970491262e-24)
(-0.000735093587 -0.01050089485 1.027872999e-22)
(-0.0004479169589 0.02687250993 0)
(-0.01134923292 0.06480757497 2.001983051e-22)
(-0.0280159975 0.08829617175 8.962061883e-23)
(-0.04799857356 0.1001234929 0)
(-0.06920601959 0.1027076528 1.569877235e-22)
(-0.09044373116 0.09781578357 0)
(-0.1107831667 0.08661102828 -1.428385787e-22)
(-0.1294093744 0.06983950241 6.515543488e-24)
(-0.1454771613 0.04808232168 0)
(-0.1580351794 0.0220175563 0)
(-0.1660133444 -0.007334438332 -1.374407071e-24)
(-0.1682671552 -0.03838839507 -9.316733016e-25)
(-0.1637064696 -0.06883975561 1.491974603e-22)
(-0.1515208759 -0.09558275419 -4.70463453e-23)
(-0.1315134547 -0.1148298625 -2.560953797e-24)
(-0.1045596065 -0.1225703383 1.534710249e-24)
(-0.07309349781 -0.1155517944 -1.558919201e-24)
(-0.04135021406 -0.09283115407 0)
(-0.01525230238 -0.05740767552 3.20380302e-24)
(-0.001044309042 -0.01714714454 -1.012911808e-21)
(-0.0003744659453 0.03346304286 0)
(-0.0117500599 0.07998918477 -1.128285515e-22)
(-0.02920707952 0.1086390925 -6.191139786e-22)
(-0.05031745093 0.1232233974 -3.75530202e-22)
(-0.07296317516 0.1269097013 0)
(-0.09598960212 0.1219255614 4.119451551e-22)
(-0.1185273476 0.1096348617 1.260922735e-22)
(-0.1398146405 0.09078245665 -5.58182826e-24)
(-0.1590221533 0.06581393042 5.55420121e-24)
(-0.1751460992 0.03520881081 0)
(-0.1869559982 -0.0001967461977 2.912128198e-23)
(-0.1930172653 -0.03889754135 4.695832658e-24)
(-0.191780992 -0.07843888235 -1.076806414e-22)
(-0.1817874442 -0.1151865342 8.004186117e-23)
(-0.1620570437 -0.1442599427 -2.419741687e-22)
(-0.1327061999 -0.1598548593 0)
(-0.09577888116 -0.1563112856 0)
(-0.05601633017 -0.1302981061 0)
(-0.0214785912 -0.08381134978 0)
(-0.001500384632 -0.02665516252 5.572105404e-22)
(-0.0002873893586 0.04016077609 0)
(-0.01169359518 0.09543611185 -3.493011628e-22)
(-0.02924438222 0.1294073596 8.93279062e-22)
(-0.05060947312 0.1469299143 3.617174477e-22)
(-0.07370082745 0.1519748651 0)
(-0.09745151209 0.147275794 -3.862549679e-22)
(-0.1211069835 0.1344191927 -3.174427222e-23)
(-0.1440324774 0.1141393298 3.333102688e-22)
(-0.1655143218 0.08670006452 1.769473676e-22)
(-0.1846248507 0.05229123404 -4.060149932e-23)
(-0.2001325804 0.01141716196 1.656821659e-23)
(-0.2104622443 -0.03471424038 -8.265242713e-24)
(-0.2137208532 -0.08376563401 3.371856552e-22)
(-0.2078215501 -0.131875632 0)
(-0.1908238536 -0.1732756104 2.420910711e-22)
(-0.1616335735 -0.2002593361 5.774762682e-24)
(-0.1211662687 -0.2040121677 -5.860881475e-24)
(-0.07384989775 -0.177211993 1.548442996e-22)
(-0.02971786824 -0.118864231 -5.435444556e-24)
(-0.002179545199 -0.04005398679 0)
(-0.000211719903 0.0467163995 0)
(-0.01125001031 0.11054981 0)
(-0.02815624352 0.149735497 -5.022752657e-22)
(-0.04874479282 0.1701517573 -1.880996539e-23)
(-0.07100086723 0.1766257122 2.038377193e-23)
(-0.09399451616 0.1724526492 -2.014309708e-23)
(-0.1171434306 0.1594870971 -2.316882123e-23)
(-0.14001795 0.1384805067 -3.029821444e-22)
(-0.1621328878 0.1095160701 6.698613719e-23)
(-0.1827959022 0.07245186851 4.513175454e-23)
(-0.2009835544 0.02734928789 -4.577718377e-23)
(-0.2152270256 -0.02508697731 0)
(-0.2235562209 -0.08298351241 -7.839674302e-23)
(-0.2234632196 -0.1427257312 0)
(-0.2120679431 -0.1981820856 -3.73956046e-22)
(-0.1867434548 -0.2400773669 5.244950427e-22)
(-0.1464438302 -0.2560773386 0)
(-0.09394567719 -0.2331209482 -1.493989246e-22)
(-0.04022000993 -0.1639613643 1.937545559e-22)
(-0.003201100314 -0.05861063076 -3.411525066e-22)
(-0.0002015411418 0.05297585008 0)
(-0.01067261852 0.1248172368 9.182866006e-22)
(-0.02628446597 0.1687424553 -2.440684244e-23)
(-0.045011078 0.191645511 9.19333567e-22)
(-0.06494597604 0.1992921028 -2.512085359e-23)
(-0.08536628713 0.1956104298 2.838843189e-23)
(-0.1059305667 0.182788683 -2.812929258e-23)
(-0.12649242 0.1616583499 -1.660917449e-23)
(-0.1468996853 0.1321762291 -5.260227512e-22)
(-0.1668458158 0.09389646554 -8.906625847e-24)
(-0.1857303024 0.04640576244 9.660193592e-24)
(-0.2024781687 -0.01023784754 3.313077159e-22)
(-0.2154154616 -0.07499820283 -5.82073875e-22)
(-0.2220209719 -0.1450311828 0)
(-0.2188032107 -0.2146760602 8.887320618e-22)
(-0.2016257527 -0.2740016404 -4.940883288e-22)
(-0.1668639194 -0.3075811936 -1.572221994e-23)
(-0.1140220094 -0.2953811891 0)
(-0.05288482015 -0.2195802561 -1.89017934e-22)
(-0.004749188166 -0.08377277882 3.360582925e-22)
(-0.0003641984473 0.05902317626 1.551009851e-23)
(-0.010495739 0.1379881481 -8.764193813e-22)
(-0.02441389493 0.1856804075 -1.157058845e-21)
(-0.04026724459 0.2101384721 -8.628984781e-22)
(-0.05630729738 0.2182348884 0)
(-0.07214856753 0.214619025 3.513804684e-23)
(-0.08779221851 0.2018791946 -7.29486528e-23)
(-0.1034562814 0.1810005608 5.867883612e-23)
(-0.1193983894 0.1518997244 3.021366152e-22)
(-0.1357931565 0.1139150573 -1.12819557e-23)
(-0.1526082337 0.06621425001 0)
(-0.1694521391 0.008177204118 -3.603929157e-22)
(-0.1852760613 -0.06015987599 7.51566731e-22)
(-0.1980448533 -0.1372746998 8.831702938e-22)
(-0.2043546278 -0.2189261872 -5.296625955e-22)
(-0.1990977624 -0.2959712894 5.16268822e-22)
(-0.1760605338 -0.3514072568 1.078231681e-23)
(-0.1300890635 -0.3584150763 -1.095546701e-23)
(-0.0668880331 -0.2843276493 -8.21537687e-23)
(-0.007083319919 -0.1169964409 0)
(-0.0009095771935 0.06540041428 -1.911486385e-23)
(-0.01167591652 0.1502816389 -1.326965296e-21)
(-0.02388882048 0.2000659531 1.09423725e-21)
(-0.03601340484 0.2244216934 6.734928869e-22)
(-0.04657308885 0.2316588214 6.014630774e-22)
(-0.055770387 0.2272393675 6.643955941e-22)
(-0.06411245982 0.2141774866 -4.458676989e-23)
(-0.07227561899 0.1936494382 -3.461336749e-22)
(-0.08096973212 0.1656028326 2.152162198e-22)
(-0.09087192577 0.1292707368 0)
(-0.1025547477 0.08353082619 0)
(-0.1163622179 0.02720010879 2.655396624e-22)
(-0.132158958 -0.0406200585 8.194326405e-23)
(-0.1489252336 -0.120012829 -2.821622922e-22)
(-0.1641284298 -0.2089300671 -5.411270824e-23)
(-0.1727877635 -0.3006992485 1.3019518e-22)
(-0.1670311317 -0.3793329079 -3.400502561e-22)
(-0.1365292446 -0.4136451946 -1.593872094e-23)
(-0.08018250158 -0.3538326183 8.204149467e-23)
(-0.01050762293 -0.1594130559 -6.032166782e-22)
(-0.002260498006 0.07348883466 0)
(-0.01580355617 0.1626521753 2.145874142e-21)
(-0.02665042615 0.2117904709 0)
(-0.03422339735 0.2333947238 -1.351807662e-21)
(-0.03759398691 0.2377766793 6.18405331e-23)
(-0.03799685492 0.2312553497 -6.193093635e-22)
(-0.03668266185 0.2171898996 -4.756283513e-22)
(-0.03489036667 0.196893449 8.301253684e-22)
(-0.03378838277 0.1703342392 -1.885697824e-22)
(-0.03449876826 0.1367221093 0)
(-0.038115731 0.0947967384 0)
(-0.04564992798 0.04304286821 2.410616138e-23)
(-0.05790804642 -0.02013780989 -6.007197759e-22)
(-0.07514598858 -0.09620649981 -4.309566364e-22)
(-0.09645175272 -0.1855556151 4.63786169e-22)
(-0.1183462641 -0.2853567751 -6.488733276e-22)
(-0.1332715402 -0.3838386514 9.11994487e-23)
(-0.1265351 -0.4504358693 2.937358965e-23)
(-0.08899154128 -0.4198536356 5.660447745e-22)
(-0.01526917934 -0.2111719721 6.020799511e-22)
(-0.005180899335 0.08598045979 0)
(-0.0252555073 0.1766291181 1.465579507e-22)
(-0.03483408089 0.2205961531 -4.917143347e-23)
(-0.03640014046 0.2354859317 7.642928622e-22)
(-0.03018483259 0.2343406721 -7.005376168e-22)
(-0.0191657967 0.2241603856 4.746479686e-23)
(-0.005615152861 0.2083525828 -1.018609543e-22)
(0.008569604792 0.1881241082 -3.389887971e-22)
(0.02179885827 0.1633911274 2.062822395e-22)
(0.03262781087 0.1333242745 0)
(0.0395845816 0.09664086367 0)
(0.04117012877 0.05174056656 -2.90266727e-22)
(0.03578483479 -0.003255395645 0)
(0.02198184384 -0.07058360635 -5.512186124e-22)
(-0.001264848585 -0.1525735489 -1.492376775e-23)
(-0.03310470093 -0.2505949831 2.559739084e-23)
(-0.06909235994 -0.3599341501 2.203139579e-22)
(-0.09227827124 -0.4575424513 4.788109385e-24)
(-0.08718089974 -0.4698129399 -5.789416434e-22)
(-0.02103127155 -0.2698972286 0)
(-0.01111631549 0.1085974981 0)
(-0.04248901927 0.1947151677 -8.848477121e-22)
(-0.04795529077 0.22581955 -5.411038494e-22)
(-0.03919536136 0.2282135536 4.543815433e-22)
(-0.01877830499 0.2182328113 -1.709982916e-24)
(0.007664311622 0.2028220334 -4.561048301e-23)
(0.03667993136 0.1847619753 5.696680481e-22)
(0.06582998284 0.1647118206 -2.76688985e-23)
(0.09327130554 0.1423128176 -2.069781278e-22)
(0.1173891571 0.1166274943 3.142212935e-23)
(0.1365461649 0.0864114399 -3.425916582e-23)
(0.1489669231 0.05017669166 -3.690593539e-23)
(0.1525275747 0.006159168478 3.205633011e-22)
(0.1449367002 -0.04796126874 6.119605152e-22)
(0.1235159765 -0.1153052895 -5.10117044e-22)
(0.08633533217 -0.2004195638 -1.616056969e-22)
(0.03199089093 -0.3067806582 1.531309366e-22)
(-0.02362123303 -0.4239837136 7.293655101e-23)
(-0.06492413117 -0.487161278 1.913292003e-21)
(-0.02509971714 -0.3291544737 2.954991905e-21)
(-0.02004680473 0.1460727412 -4.390207021e-23)
(-0.06416406299 0.2112955864 4.417379768e-23)
(-0.05070230706 0.2177300486 1.000188364e-21)
(-0.01934097527 0.2014679983 -8.2705564e-24)
(0.02414464762 0.1809076171 0)
(0.07154121882 0.1606933336 4.36372094e-23)
(0.1190703385 0.1416495481 -2.273851316e-22)
(0.1644767308 0.123318181 -9.027954685e-23)
(0.2062251131 0.1048117286 3.680733696e-23)
(0.2429642994 0.08507140055 -1.70165471e-23)
(0.273220755 0.06296147692 3.429969889e-23)
(0.2952536082 0.03726293876 -6.592680183e-23)
(0.3066971036 0.006535068938 -9.303904782e-23)
(0.3049738292 -0.03087769963 1.517043794e-22)
(0.2863936232 -0.07786290894 0)
(0.247056807 -0.1399300364 1.505609818e-22)
(0.1810922223 -0.2266299749 2.560014128e-22)
(0.09604450141 -0.3443894944 0)
(-0.006697616463 -0.4552210215 -3.67563547e-21)
(-0.01922408214 -0.3777537585 -2.892621363e-21)
(-0.02591951345 0.2276828808 -9.514204045e-22)
(-0.03998324619 0.2238216534 -1.388976275e-22)
(0.03656136848 0.1810585368 -2.335581379e-22)
(0.1090503031 0.1451059095 -1.193741881e-22)
(0.181719118 0.1172445494 -4.295825075e-23)
(0.2490090721 0.09627907579 9.783178432e-23)
(0.3100336691 0.0800251034 -1.408591818e-22)
(0.3646209321 0.06656815255 1.297175022e-22)
(0.4126252481 0.05449178824 -8.620118944e-23)
(0.4536250286 0.04270894883 1.132189054e-25)
(0.4867878711 0.03032298403 1.527741552e-23)
(0.5107451353 0.01652901864 7.997203975e-23)
(0.5236597446 0.0005365145362 -1.811123597e-22)
(0.5231798006 -0.01863373227 -1.617145931e-22)
(0.5052323414 -0.04286478935 -4.262951656e-23)
(0.4658715076 -0.07633231169 0)
(0.3952696493 -0.1286089383 -1.846478461e-22)
(0.2916071043 -0.2208468098 8.148764492e-22)
(0.1197455102 -0.3525016902 1.631601762e-21)
(0.02670547249 -0.3775497979 2.172656001e-21)
(0.2142894468 0.1347447211 9.864988957e-22)
(0.2776311183 0.09870503595 0)
(0.4316592286 0.0581041483 -2.594320491e-22)
(0.5304749338 0.03846264956 -1.741666213e-22)
(0.6016965743 0.02623419112 0)
(0.6571198953 0.01831923461 -6.009090179e-23)
(0.7015213599 0.01313600824 6.377999743e-23)
(0.7376042498 0.009542126077 -1.800156083e-23)
(0.7669368415 0.006804463353 2.885973508e-23)
(0.7902106684 0.00446474369 2.315032749e-23)
(0.8074555009 0.002221319703 0)
(0.8182621354 -0.0001500750737 -2.873032525e-23)
(0.8216499714 -0.002723848333 0)
(0.8162394196 -0.005712668665 2.738149777e-23)
(0.7991333148 -0.009611382822 1.421690547e-23)
(0.7679986344 -0.01500255105 -5.799405165e-23)
(0.7106555754 -0.02502519953 -2.535661549e-22)
(0.6235183979 -0.04204285408 -6.918102592e-22)
(0.4230091019 -0.09182968081 0)
(0.2705674689 -0.1524021841 -2.119483864e-21)
)
;

boundaryField
{
    movingWall
    {
        type            calculated;
        value           uniform (1 0 0);
    }
    fixedWalls
    {
        type            calculated;
        value           uniform (0 0 0);
    }
    frontAndBack
    {
        type            empty;
    }
}


// ************************************************************************* //
