/*--------------------------------*- C++ -*----------------------------------*\
  =========                 |
  \\      /  F ield         | OpenFOAM: The Open Source CFD Toolbox
   \\    /   O peration     | Website:  https://openfoam.org
    \\  /    A nd           | Version:  13
     \\/     M anipulation  |
\*---------------------------------------------------------------------------*/
FoamFile
{
    format      ascii;
    class       scalarField;
    location    "20.44";
    object      p_all;
}
// * * * * * * * * * * * * * * * * * * * * * * * * * * * * * * * * * * * * * //


400
(
1.024100321e-06
-0.0005460612061
-0.0008878787292
-0.001015153636
-0.0009361142855
-0.0006831124922
-0.0002937095519
0.0001961137675
0.000749842995
0.001327004393
0.001881965777
0.002361886456
0.002711389439
0.00287739624
0.002818378391
0.002516329086
0.001991682495
0.001301554159
0.0006428869085
4.716150773e-05
0.0005890228466
8.015047614e-06
-0.0003554822787
-0.000497597972
-0.00046674107
-0.0002894800608
4.801219242e-06
0.0003868116045
0.0008251451424
0.001282549201
0.001719191659
0.00208392775
0.002326394965
0.002399239894
0.002268595222
0.001925675345
0.001397197111
0.0007481783133
0.0001507825133
-0.000511754804
0.000953017517
0.0003089359104
-9.205102503e-05
-0.0002381581656
-0.0002318090679
-0.0001030714172
0.0001240112405
0.0004281393093
0.0007855751781
0.001164347171
0.001532555721
0.001836194407
0.002025313733
0.002051197604
0.001878712592
0.001498031477
0.0009331088494
0.0002404709011
-0.0004577511288
-0.001294497876
0.0009765817728
0.0002587681302
-0.0001911834571
-0.0003432304099
-0.0003522232815
-0.0002549482697
-7.204958147e-05
0.0001838647913
0.0004992326353
0.0008537812386
0.001206417151
0.001514149036
0.001716218816
0.001752111232
0.001572964308
0.001155386426
0.0005111814714
-0.0003129375012
-0.001227962201
-0.002378393362
0.0004810044608
-0.0002841256116
-0.0007627172153
-0.0009141405708
-0.0009348377108
-0.000866036833
-0.0007227284711
-0.0005053909106
-0.0002137658431
0.000142871997
0.0005340976622
0.0009116449023
0.001204318571
0.001331257377
0.001216065472
0.0008055537346
8.566759991e-05
-0.0009115455756
-0.002121154784
-0.00364920016
-0.0006854479519
-0.001465899414
-0.001954634878
-0.002105375085
-0.002147747765
-0.002123910302
-0.002038998879
-0.001875850073
-0.001613253352
-0.00124081774
-0.0007740940454
-0.0002576148934
0.0002260279255
0.0005670439642
0.0006435609694
0.0003474783984
-0.0003867823009
-0.001557444323
-0.003127795182
-0.005134479998
-0.002660166379
-0.003421599185
-0.003913155855
-0.004078168783
-0.004175024185
-0.004243439822
-0.00427375517
-0.004224004471
-0.004041776468
-0.003683322224
-0.003134127033
-0.002419948066
-0.001626660031
-0.0008966260935
-0.0004180609438
-0.0003919059938
-0.000981308391
-0.002253347871
-0.004225053702
-0.006820007292
-0.005552262174
-0.006266991457
-0.006764973284
-0.006978480503
-0.007191217155
-0.007438285483
-0.00769106593
-0.007875213825
-0.007894365148
-0.007652170979
-0.007078513789
-0.006150503549
-0.004934855001
-0.003596255771
-0.002405680483
-0.001706569241
-0.001835390344
-0.003007082657
-0.005360114366
-0.008653256944
-0.009431081318
-0.01007732762
-0.01059389609
-0.0109056051
-0.01132018821
-0.01186901875
-0.01250320848
-0.01311039719
-0.01353750596
-0.0136122656
-0.01317088148
-0.01210941564
-0.01041656607
-0.008245649418
-0.005946155722
-0.004052474113
-0.003181290198
-0.003834386608
-0.006417538618
-0.01048212049
-0.01431125273
-0.01487027798
-0.0154169792
-0.01587559906
-0.01658244549
-0.01757129653
-0.01877670725
-0.0200473782
-0.02116456689
-0.0218596308
-0.02184282499
-0.02085759174
-0.01875761178
-0.0156065763
-0.01178264489
-0.008026109424
-0.005349720039
-0.004750619649
-0.007171690189
-0.0119693156
-0.02014712249
-0.02059751937
-0.02116745674
-0.02178877325
-0.02284299677
-0.02437978372
-0.02632699234
-0.02849970461
-0.03061215444
-0.03228696314
-0.03307808324
-0.03252345494
-0.03026570703
-0.02616287632
-0.02051042377
-0.01419100833
-0.008680118104
-0.005716309838
-0.007209412559
-0.01245638379
-0.02684764757
-0.02715371452
-0.02769397676
-0.02841371346
-0.0297787212
-0.03187708016
-0.0346450912
-0.0378740949
-0.04121683775
-0.04418683809
-0.0461693497
-0.04646011322
-0.04444496918
-0.03964300571
-0.03210545044
-0.02268485644
-0.01325438309
-0.00647520394
-0.005798767983
-0.01075558629
-0.03432481509
-0.03440866722
-0.03477996409
-0.03539448516
-0.03688067317
-0.03939725275
-0.04290550856
-0.04718142618
-0.05182238919
-0.05623976478
-0.05966079148
-0.0611722046
-0.05976174627
-0.05463924729
-0.04542600697
-0.03268623235
-0.01844122447
-0.006235505436
-0.001664674344
-0.004864961498
-0.04259922015
-0.042269361
-0.04218572287
-0.04228570807
-0.04350254434
-0.04610381009
-0.05008531216
-0.05520447911
-0.06099791803
-0.06677839554
-0.07162240677
-0.07439602795
-0.07381683047
-0.06866065283
-0.05805925506
-0.04205052456
-0.0224300011
-0.00324829557
0.007354932618
0.008348394514
-0.05199954951
-0.05075090199
-0.04966810333
-0.04856916439
-0.0489164132
-0.05110864382
-0.05515973649
-0.06078162206
-0.06741980309
-0.07427379509
-0.08026711249
-0.08406174034
-0.08411789595
-0.07882666418
-0.06683368235
-0.04751560652
-0.0221205892
0.005507997188
0.02472093757
0.03353206722
-0.06364560169
-0.06017972957
-0.05708855692
-0.05375589988
-0.05245668619
-0.0536703121
-0.0573534629
-0.06312564211
-0.07024884161
-0.07778703932
-0.08447939821
-0.08877413925
-0.08888876862
-0.08283217432
-0.06884533451
-0.04561677136
-0.01374845813
0.0244198096
0.05554231597
0.07735803669
-0.08017730208
-0.07106678126
-0.06411408138
-0.05715901776
-0.05342500124
-0.05320802545
-0.0562501936
-0.06190366485
-0.06924765527
-0.07710537003
-0.08400134077
-0.08814241062
-0.08747295096
-0.07965155873
-0.06247685683
-0.03404961884
0.005563748876
0.05859524128
0.1058232199
0.1480677303
-0.1105004353
-0.08584866587
-0.07160199373
-0.05896784665
-0.05191019569
-0.04987869792
-0.05209671009
-0.05750106978
-0.06485059522
-0.07269907466
-0.07933113941
-0.08270609059
-0.08051447245
-0.06988375766
-0.04823132281
-0.01272332023
0.03823421826
0.1071303435
0.1779768762
0.2564745874
-0.1684323139
-0.09990429419
-0.07500597095
-0.05479651168
-0.0446174936
-0.04158275366
-0.04371348879
-0.04937548919
-0.0570096873
-0.06496265791
-0.07135393617
-0.07397354747
-0.07012434405
-0.05701065536
-0.03102774642
0.01192830756
0.07559721368
0.1664016133
0.2761593057
0.4377017883
-0.3984237878
-0.1380958959
-0.07496864023
-0.04708771794
-0.03354870079
-0.03002831445
-0.03279868346
-0.0392595742
-0.04755184266
-0.05593165069
-0.06249287603
-0.06502308884
-0.06099018933
-0.04696637242
-0.01875547515
0.02993497972
0.1069539142
0.2334249504
0.4198777669
0.7800210789
)


// ************************************************************************* //
