/*--------------------------------*- C++ -*----------------------------------*\
  =========                 |
  \\      /  F ield         | OpenFOAM: The Open Source CFD Toolbox
   \\    /   O peration     | Website:  https://openfoam.org
    \\  /    A nd           | Version:  13
     \\/     M anipulation  |
\*---------------------------------------------------------------------------*/
FoamFile
{
    format      ascii;
    class       vectorField;
    location    "45.26";
    object      U_all;
}
// * * * * * * * * * * * * * * * * * * * * * * * * * * * * * * * * * * * * * //


400
(
(1.10075402e-05 -3.783065813e-05 0)
(-0.0006660933763 0.0004130429853 -1.551383108e-23)
(-0.002185373751 0.0009203938988 0)
(-0.004047832531 0.001312781623 0)
(-0.0059718682 0.00153506648 6.845748516e-25)
(-0.007762783006 0.00156984764 4.150942303e-24)
(-0.009284545112 0.001423562231 -7.374043156e-24)
(-0.01043594193 0.001119721694 7.530070264e-24)
(-0.0111368156 0.0006960821577 -2.095328959e-25)
(-0.01132711289 0.0002030789269 -3.99457033e-24)
(-0.01097177358 -0.0003002312845 5.803545191e-24)
(-0.01007232823 -0.000747514557 -5.929537371e-23)
(-0.008679880053 -0.00107556228 -6.552668558e-23)
(-0.00690285286 -0.00123304528 -7.784270494e-23)
(-0.004910737604 -0.001192639916 4.573559202e-24)
(-0.002927230558 -0.0009619215222 -4.137898542e-24)
(-0.001205296863 -0.0005912121941 -1.998727907e-22)
(-1.906604784e-05 -0.0001698830502 0)
(0.0005181555524 0.0001720855976 1.509362986e-25)
(0.0002227520056 0.0003059783573 -2.549695459e-24)
(-0.0002633620354 0.0008289715819 1.382910268e-25)
(-0.002703303859 0.003383842643 1.5611816e-23)
(-0.006907275465 0.00560450154 1.555485e-25)
(-0.01195231963 0.007008208311 -8.495973381e-25)
(-0.01713504579 0.007553777694 1.162215661e-24)
(-0.02197535607 0.007294201336 1.306943987e-23)
(-0.02611076148 0.006321894654 1.38786022e-24)
(-0.02926564675 0.004754192272 -7.28180169e-24)
(-0.03122672941 0.002737150775 1.015244464e-23)
(-0.03184201028 0.000452405923 4.509902634e-24)
(-0.0310276163 -0.001884143087 -6.318810619e-24)
(-0.02879316888 -0.004023027327 2.96184488e-24)
(-0.0252713859 -0.005708353048 3.895532319e-23)
(-0.02073194998 -0.006707409554 -1.954763781e-24)
(-0.01558962613 -0.006854141542 3.754467067e-24)
(-0.01038513264 -0.006097466456 -9.740928923e-23)
(-0.005730270295 -0.004546188858 9.637527852e-23)
(-0.002233365105 -0.002507421146 -3.960824153e-25)
(-0.0001817740667 -0.0005023739343 4.060716861e-25)
(8.34360547e-05 0.000609923888 0)
(-0.0004188233828 0.002935080713 -2.910342634e-25)
(-0.004647874463 0.008804016653 1.701967848e-23)
(-0.01137195977 0.01324042462 -8.284282188e-24)
(-0.01932729058 0.01579204137 -2.075612613e-25)
(-0.02747411766 0.01653000144 2.039072683e-25)
(-0.03511779001 0.01564441891 6.798213163e-27)
(-0.04171345024 0.01335997836 -1.220359242e-24)
(-0.04683571859 0.009919772337 -4.551176601e-25)
(-0.05014988963 0.005602433012 -1.063063053e-23)
(-0.05141231884 0.0007444194009 0)
(-0.05047793283 -0.004241781417 0)
(-0.04733706432 -0.008887187088 2.670976941e-23)
(-0.04215928169 -0.01268176876 2.812999651e-23)
(-0.03531437687 -0.0151360512 -1.646158424e-24)
(-0.02738996406 -0.0158618959 4.845858276e-23)
(-0.01917005868 -0.01467334305 9.419234391e-23)
(-0.01156090585 -0.01169360586 3.975665243e-23)
(-0.00546540988 -0.00745074526 4.141489225e-25)
(-0.001451097848 -0.002936045487 1.074010187e-25)
(-9.072615673e-05 0.0002258746534 0)
(-0.0005024632699 0.006045350984 -4.24879085e-23)
(-0.006402740367 0.01637075812 -1.69219132e-23)
(-0.0155350252 0.02355933826 8.211123414e-24)
(-0.02627912102 0.0274416276 0)
(-0.03728746809 0.02832102237 0)
(-0.04769037594 0.0265877259 0)
(-0.05679663223 0.02263120439 -4.465499974e-26)
(-0.06405384259 0.01683609425 -2.136956181e-24)
(-0.0690108169 0.009622184877 0)
(-0.07130827996 0.001491050505 1.635364069e-24)
(-0.07070853621 -0.006936504217 2.802710316e-25)
(-0.0671303958 -0.01493018927 -2.81055784e-25)
(-0.06069905883 -0.02166728252 0)
(-0.05180750866 -0.02631605836 4.133229108e-23)
(-0.04114991941 -0.02816070946 -4.681571508e-23)
(-0.02971970331 -0.02677372315 -2.76194466e-23)
(-0.01873716625 -0.02221530624 -3.960809234e-23)
(-0.00948802678 -0.01521922319 7.795975117e-25)
(-0.002976878321 -0.00729819615 9.790409997e-23)
(-0.0002318785595 -0.0008661699497 0)
(-0.0005316129007 0.01009501622 4.269451249e-23)
(-0.007983592813 0.02595219728 4.785478611e-25)
(-0.01939687588 0.03642883161 -4.676179844e-25)
(-0.03282382612 0.04185521059 0)
(-0.04664689174 0.04289485492 7.782951835e-25)
(-0.05985229845 0.04020074182 -7.675038377e-25)
(-0.07163291577 0.03434741737 3.672291174e-23)
(-0.0813275147 0.02585664124 1.848225745e-23)
(-0.08836601289 0.01527298378 6.238911857e-24)
(-0.09225469715 0.003246147246 -1.637269291e-24)
(-0.09260379935 -0.00940783252 0)
(-0.08917555685 -0.02167478074 4.370508011e-25)
(-0.08195979502 -0.03236745147 1.008974467e-23)
(-0.0712688575 -0.04021250241 -4.349258261e-23)
(-0.05782019106 -0.04402046425 1.932887172e-24)
(-0.04278583147 -0.04294829429 4.217269518e-23)
(-0.02775450374 -0.03683346985 -3.841786024e-25)
(-0.01455062232 -0.02652721037 0)
(-0.004859461145 -0.01408454574 5.436515042e-23)
(-0.0003641474686 -0.002846954394 -2.565080624e-22)
(-0.0005272205919 0.01499927756 9.841553858e-23)
(-0.009377924851 0.03739022375 -4.907795809e-25)
(-0.02288182806 0.05170223245 0)
(-0.03883043676 0.05894183473 0)
(-0.05538657016 0.0602557498 -8.732144021e-23)
(-0.07142876951 0.05661901333 -8.499098206e-23)
(-0.0860665442 0.04880168916 -4.06754658e-23)
(-0.09855086243 0.03743980546 -1.504372938e-23)
(-0.1081945333 0.02315983925 -5.368947038e-24)
(-0.1143444749 0.006709678611 -8.175015208e-24)
(-0.1164046228 -0.01093292221 6.601176684e-24)
(-0.1138937423 -0.02848945107 8.826834513e-24)
(-0.1065487007 -0.04437046318 -1.892322511e-23)
(-0.09446804349 -0.05675333822 4.608135966e-24)
(-0.07826857185 -0.06378298706 0)
(-0.05922895647 -0.06393495437 -1.572875634e-23)
(-0.03933982013 -0.05653816273 -2.429092311e-26)
(-0.02114188816 -0.04235809108 0)
(-0.007318702265 -0.02398229426 -1.520648956e-22)
(-0.00052161618 -0.005925545011 6.05627636e-22)
(-0.0004990821078 0.02064574663 -9.774505474e-23)
(-0.01052950976 0.05045438312 2.831986546e-22)
(-0.02582957448 0.06912511907 1.526863177e-22)
(-0.04402138409 0.07849258194 3.61929274e-24)
(-0.06310739396 0.08029476747 -7.319361231e-23)
(-0.08190405385 0.07588043229 9.043554529e-23)
(-0.09947763983 0.06621690917 -3.590219305e-24)
(-0.1150227402 0.05201695154 -1.729170353e-24)
(-0.1277519197 0.03392358457 2.524161866e-24)
(-0.1368472613 0.01270233076 7.382649384e-24)
(-0.1414710532 -0.01058782472 -6.500920132e-24)
(-0.1408248195 -0.03446024509 -9.788270831e-24)
(-0.1342745988 -0.05692771823 -3.261730497e-23)
(-0.1215450264 -0.07553316302 -3.66157394e-23)
(-0.1029672683 -0.08754260617 5.646114123e-25)
(-0.07976370121 -0.09039209687 0)
(-0.05426682638 -0.08244513732 0)
(-0.02987161019 -0.06397736827 -2.906071264e-24)
(-0.01066285169 -0.037987947 2.97052064e-24)
(-0.000735093811 -0.01050089446 1.027874934e-22)
(-0.0004479168302 0.02687251238 0)
(-0.01134923267 0.06480757781 2.001984128e-22)
(-0.02801599706 0.08829617512 8.962054624e-23)
(-0.04799857413 0.1001234973 0)
(-0.06920602158 0.1027076582 1.569888219e-22)
(-0.0904437347 0.09781578921 0)
(-0.1107831716 0.08661103301 -1.428390699e-22)
(-0.1294093799 0.06983950537 6.515568311e-24)
(-0.1454771665 0.04808232248 0)
(-0.1580351835 0.02201755493 0)
(-0.1660133472 -0.007334441499 -1.374415085e-24)
(-0.1682671574 -0.03838839947 -9.316843937e-25)
(-0.1637064717 -0.06883976062 1.491987534e-22)
(-0.1515208786 -0.09558275927 -4.704628704e-23)
(-0.1315134581 -0.1148298672 -2.560996057e-24)
(-0.1045596099 -0.1225703422 1.534747757e-24)
(-0.07309350075 -0.1155517974 -1.5589573e-24)
(-0.04135021609 -0.09283115615 0)
(-0.01525230339 -0.05740767656 3.203819544e-24)
(-0.001044309386 -0.01714714446 -1.012915981e-21)
(-0.0003744665824 0.03346304552 0)
(-0.01175006071 0.07998918977 -1.128294178e-22)
(-0.02920707957 0.1086390976 -6.191159679e-22)
(-0.05031745084 0.1232234024 -3.755312608e-22)
(-0.07296317571 0.1269097065 0)
(-0.09598960419 0.1219255669 4.119462971e-22)
(-0.1185273516 0.1096348669 1.260927079e-22)
(-0.1398146458 0.09078246065 -5.581839418e-24)
(-0.1590221588 0.06581393254 5.554212312e-24)
(-0.1751461036 0.0352088106 0)
(-0.186956001 -0.0001967487287 2.912132197e-23)
(-0.193017267 -0.03889754576 4.695848441e-24)
(-0.1917809936 -0.078438888 -1.076812642e-22)
(-0.181787446 -0.1151865405 8.004251422e-23)
(-0.1620570461 -0.144259949 -2.419753728e-22)
(-0.1327062024 -0.1598548652 0)
(-0.09577888346 -0.1563112906 0)
(-0.05601633181 -0.1302981098 0)
(-0.021478592 -0.08381135184 0)
(-0.001500384838 -0.02665516303 5.572126821e-22)
(-0.0002873896523 0.04016077769 0)
(-0.01169359572 0.09543611702 -3.493021553e-22)
(-0.02924438265 0.1294073658 8.93281155e-22)
(-0.05060947294 0.1469299202 3.617184729e-22)
(-0.07370082707 0.1519748706 0)
(-0.09745151255 0.1472757992 -3.862560436e-22)
(-0.1211069857 0.1344191976 -3.174433682e-23)
(-0.1440324812 0.114139334 3.33310765e-22)
(-0.1655143264 0.08670006754 1.769475682e-22)
(-0.1846248547 0.05229123524 -4.060153383e-23)
(-0.2001325831 0.01141716098 1.656821399e-23)
(-0.2104622457 -0.0347142435 -8.265255141e-24)
(-0.213720854 -0.08376563884 3.371860788e-22)
(-0.2078215511 -0.1318756379 0)
(-0.190823855 -0.1732756169 2.420922758e-22)
(-0.1616335752 -0.2002593425 5.774797864e-24)
(-0.1211662702 -0.2040121735 -5.860917182e-24)
(-0.07384989883 -0.1772119976 1.548454107e-22)
(-0.0297178687 -0.1188642338 -5.435479354e-24)
(-0.002179545229 -0.04005398778 0)
(-0.000211719589 0.04671640082 0)
(-0.01125001012 0.1105498143 0)
(-0.02815624365 0.1497355029 -5.022762987e-22)
(-0.04874479236 0.1701517634 -1.880999953e-23)
(-0.07100086613 0.1766257179 2.038380944e-23)
(-0.0939945152 0.1724526542 -2.014313415e-23)
(-0.1171434307 0.1594871016 -2.316885529e-23)
(-0.1400179515 0.1384805107 -3.029825895e-22)
(-0.1621328902 0.1095160734 6.69861781e-23)
(-0.1827959046 0.07245187065 4.51317941e-23)
(-0.2009835561 0.0273492884 -4.577722126e-23)
(-0.2152270263 -0.0250869787 0)
(-0.223556221 -0.08298351556 -7.839696167e-23)
(-0.2234632196 -0.1427257357 0)
(-0.2120679435 -0.1981820911 -3.739565465e-22)
(-0.1867434555 -0.2400773727 5.244960607e-22)
(-0.1464438311 -0.2560773442 0)
(-0.09394567784 -0.233120953 -1.494000007e-22)
(-0.0402200102 -0.1639613676 1.937556202e-22)
(-0.003201100267 -0.058610632 -3.411535661e-22)
(-0.0002015408436 0.05297585204 0)
(-0.01067261826 0.1248172407 9.182875745e-22)
(-0.02628446574 0.1687424604 -2.440687243e-23)
(-0.04501107696 0.1916455166 9.193346272e-22)
(-0.06494597403 0.1992921081 -2.512088863e-23)
(-0.08536628478 0.1956104344 2.838847124e-23)
(-0.1059305648 0.1827886869 -2.812933157e-23)
(-0.1264924189 0.1616583532 -1.660919176e-23)
(-0.1468996849 0.1321762319 -5.260232417e-22)
(-0.1668458157 0.09389646761 -8.906633339e-24)
(-0.1857303021 0.04640576345 9.660199606e-24)
(-0.2024781679 -0.0102378479 3.313079085e-22)
(-0.2154154604 -0.07499820463 -5.820742674e-22)
(-0.2220209708 -0.1450311859 0)
(-0.2188032099 -0.2146760643 8.887329924e-22)
(-0.2016257524 -0.2740016451 -4.940892856e-22)
(-0.1668639194 -0.3075811986 -1.572225052e-23)
(-0.1140220097 -0.2953811938 0)
(-0.05288482035 -0.2195802596 -1.890189803e-22)
(-0.004749188141 -0.08377278017 3.360593335e-22)
(-0.0003641986092 0.05902317863 1.551011335e-23)
(-0.01049573929 0.1379881521 -8.764203088e-22)
(-0.0244138947 0.1856804123 -1.157059813e-21)
(-0.04026724306 0.2101384773 -8.628994732e-22)
(-0.05630729446 0.2182348932 0)
(-0.07214856382 0.214619029 3.513808674e-23)
(-0.0877922148 0.2018791976 -7.294873335e-23)
(-0.1034562781 0.1810005629 5.867889654e-23)
(-0.1193983865 0.1518997259 3.021368856e-22)
(-0.1357931538 0.1139150582 -1.128196471e-23)
(-0.1526082311 0.06621425028 0)
(-0.1694521365 0.00817720355 -3.603931265e-22)
(-0.1852760587 -0.06015987747 7.515671546e-22)
(-0.1980448508 -0.1372747022 8.831707993e-22)
(-0.2043546257 -0.2189261902 -5.296630565e-22)
(-0.1990977609 -0.2959712931 5.16269311e-22)
(-0.1760605329 -0.351407261 1.078234773e-23)
(-0.1300890633 -0.3584150805 -1.095549842e-23)
(-0.06688803318 -0.2843276528 -8.215273336e-23)
(-0.00708331994 -0.1169964423 0)
(-0.0009095776545 0.06540041633 -1.91148795e-23)
(-0.01167591724 0.1502816426 -1.326966304e-21)
(-0.02388882038 0.2000659578 1.094238159e-21)
(-0.03601340305 0.2244216984 6.734933386e-22)
(-0.04657308536 0.2316588259 6.014635009e-22)
(-0.05577038238 0.2272393709 6.643961179e-22)
(-0.06411245485 0.2141774887 -4.458681067e-23)
(-0.07227561413 0.1936494392 -3.461339527e-22)
(-0.08096972747 0.1656028326 2.152163783e-22)
(-0.09087192126 0.1292707362 0)
(-0.1025547433 0.08353082506 0)
(-0.1163622136 0.02720010721 2.655397967e-22)
(-0.132158954 -0.04062006046 8.194328228e-23)
(-0.14892523 -0.1200128313 -2.821624852e-22)
(-0.1641284267 -0.2089300696 -5.411273939e-23)
(-0.1727877609 -0.3006992514 1.301952251e-22)
(-0.1670311299 -0.3793329112 -3.400507938e-22)
(-0.1365292437 -0.4136451981 -1.593820919e-23)
(-0.08018250141 -0.3538326214 8.204046074e-23)
(-0.01050762295 -0.1594130574 -6.032156427e-22)
(-0.002260498421 0.07348883597 0)
(-0.01580355681 0.1626521782 2.1458757e-21)
(-0.02665042594 0.2117904751 0)
(-0.03422339544 0.2333947287 -1.351808495e-21)
(-0.03759398334 0.2377766838 6.184049233e-23)
(-0.03799685013 0.2312553528 -6.193098547e-22)
(-0.03668265646 0.2171899011 -4.75628678e-22)
(-0.03489036111 0.1968934491 8.301259841e-22)
(-0.03378837724 0.1703342382 -1.88569922e-22)
(-0.0344987628 0.1367221075 0)
(-0.03811572565 0.0947967362 0)
(-0.04564992285 0.04304286578 2.4106161e-23)
(-0.05790804164 -0.02013781239 -6.007200674e-22)
(-0.07514598426 -0.09620650222 -4.309568573e-22)
(-0.09645174896 -0.1855556174 4.637864241e-22)
(-0.118346261 -0.2853567773 -6.488738624e-22)
(-0.1332715378 -0.3838386538 9.119947911e-23)
(-0.1265350986 -0.4504358719 2.937304628e-23)
(-0.08899154081 -0.4198536381 5.660442887e-22)
(-0.01526917933 -0.2111719734 6.020789175e-22)
(-0.005180899597 0.08598046028 0)
(-0.02525550764 0.1766291196 1.465579689e-22)
(-0.03483408038 0.2205961562 -4.917146089e-23)
(-0.0364001385 0.235485936 7.642932989e-22)
(-0.0301848293 0.2343406762 -7.00538028e-22)
(-0.01916579236 0.2241603886 4.7464825e-23)
(-0.005615147849 0.2083525843 -1.018609794e-22)
(0.008569610227 0.1881241083 -3.389890302e-22)
(0.02179886396 0.1633911264 2.062823482e-22)
(0.0326278166 0.1333242727 0)
(0.03958458721 0.09664086141 0)
(0.04117013407 0.05174056409 -2.902668612e-22)
(0.03578483964 -0.00325539809 0)
(0.02198184816 -0.07058360862 -5.512188658e-22)
(-0.001264844852 -0.1525735508 -1.492377121e-23)
(-0.03310469781 -0.2505949848 2.559742229e-23)
(-0.0690923574 -0.3599341517 2.20314465e-22)
(-0.09227826954 -0.4575424529 4.788077444e-24)
(-0.08718089904 -0.4698129417 -5.789411257e-22)
(-0.02103127148 -0.2698972298 0)
(-0.01111631569 0.1085974978 0)
(-0.04248901947 0.1947151678 -8.848482318e-22)
(-0.04795529015 0.2258195516 -5.41104122e-22)
(-0.03919535953 0.2282135565 4.543817831e-22)
(-0.01877830214 0.2182328145 -1.709982875e-24)
(0.007664315316 0.2028220363 -4.561050794e-23)
(0.03667993568 0.1847619773 5.696683805e-22)
(0.06582998766 0.1647118216 -2.76689128e-23)
(0.0932713107 0.1423128176 -2.069782387e-22)
(0.1173891623 0.1166274935 3.142214399e-23)
(0.1365461701 0.08641143851 -3.425918073e-23)
(0.1489669279 0.0501766899 -3.690595094e-23)
(0.152527579 0.006159166578 3.205634389e-22)
(0.1449367039 -0.04796127054 6.119607999e-22)
(0.1235159797 -0.115305291 -5.101173272e-22)
(0.08633533473 -0.200419565 -1.616059403e-22)
(0.03199089323 -0.3067806591 1.531306933e-22)
(-0.02362123132 -0.4239837146 7.293651972e-23)
(-0.06492413044 -0.487161279 1.913291547e-21)
(-0.02509971702 -0.3291544745 2.954991388e-21)
(-0.02004680493 0.1460727402 -4.390208872e-23)
(-0.06416406331 0.2112955859 4.41738163e-23)
(-0.05070230662 0.2177300489 1.000188864e-21)
(-0.01934097371 0.2014679997 -8.270530906e-24)
(0.02414464995 0.1809076193 0)
(0.07154122176 0.160693336 4.363723668e-23)
(0.119070342 0.1416495503 -2.273852669e-22)
(0.1644767346 0.1233181828 -9.027960462e-23)
(0.2062251172 0.1048117297 3.68073586e-23)
(0.2429643035 0.08507140089 -1.701655465e-23)
(0.273220759 0.06296147658 3.429971382e-23)
(0.2952536119 0.03726293789 -6.59268309e-23)
(0.3066971069 0.006535067786 -9.303908158e-23)
(0.304973832 -0.03087770081 1.517044673e-22)
(0.2863936255 -0.07786290997 0)
(0.2470568088 -0.1399300371 1.505612551e-22)
(0.1810922239 -0.2266299753 2.560013881e-22)
(0.09604450268 -0.3443894949 0)
(-0.00669761577 -0.4552210219 -3.675634718e-21)
(-0.01922408199 -0.3777537589 -2.892620863e-21)
(-0.02591951346 0.2276828795 -9.514205339e-22)
(-0.03998324663 0.2238216529 -1.38897681e-22)
(0.03656136856 0.1810585365 -2.335582568e-22)
(0.1090503044 0.1451059101 -1.19374229e-22)
(0.1817191197 0.1172445506 -4.295828228e-23)
(0.2490090739 0.09627907738 9.783187833e-23)
(0.3100336711 0.08002510506 -1.408593041e-22)
(0.3646209342 0.06656815403 1.297175901e-22)
(0.4126252505 0.05449178933 -8.620124007e-23)
(0.4536250311 0.04270894942 1.132190132e-25)
(0.4867878736 0.03032298412 1.527742267e-23)
(0.5107451376 0.01652901833 7.997207593e-23)
(0.5236597467 0.0005365140227 -1.811124472e-22)
(0.5231798022 -0.01863373284 -1.617146821e-22)
(0.5052323427 -0.04286478986 -4.262957438e-23)
(0.4658715087 -0.07633231206 0)
(0.3952696501 -0.1286089385 -1.846476964e-22)
(0.291607105 -0.2208468099 8.148762991e-22)
(0.1197455107 -0.3525016903 1.631601514e-21)
(0.02670547262 -0.377549798 2.172655878e-21)
(0.2142894468 0.1347447205 9.864990397e-22)
(0.2776311184 0.09870503547 0)
(0.4316592287 0.05810414825 -2.594321858e-22)
(0.5304749342 0.03846264971 -1.741667524e-22)
(0.6016965747 0.02623419142 0)
(0.6571198956 0.01831923503 -6.009096378e-23)
(0.7015213603 0.0131360087 6.378005779e-23)
(0.7376042502 0.0095421265 -1.800157528e-23)
(0.7669368421 0.006804463678 2.885975673e-23)
(0.7902106691 0.004464743881 2.315034153e-23)
(0.8074555017 0.002221319758 0)
(0.8182621362 -0.0001500751254 -2.873033924e-23)
(0.8216499721 -0.002723848447 0)
(0.8162394201 -0.005712668789 2.738152586e-23)
(0.7991333151 -0.009611382923 1.421693387e-23)
(0.7679986347 -0.01500255111 -5.799402324e-23)
(0.7106555756 -0.02502519955 -2.535660685e-22)
(0.6235183981 -0.04204285407 -6.918101417e-22)
(0.4230091021 -0.09182968081 0)
(0.2705674689 -0.1524021841 -2.119483744e-21)
)


// ************************************************************************* //
