/*--------------------------------*- C++ -*----------------------------------*\
  =========                 |
  \\      /  F ield         | OpenFOAM: The Open Source CFD Toolbox
   \\    /   O peration     | Website:  https://openfoam.org
    \\  /    A nd           | Version:  13
     \\/     M anipulation  |
\*---------------------------------------------------------------------------*/
FoamFile
{
    format      ascii;
    class       scalarField;
    location    "39";
    object      p_all;
}
// * * * * * * * * * * * * * * * * * * * * * * * * * * * * * * * * * * * * * //


400
(
7.385831207e-08
-0.0005474235961
-0.0008894729402
-0.001016957273
-0.0009381039816
-0.0006852678495
-0.0002959975901
0.00019373597
0.0007474024488
0.001324489298
0.001879332301
0.002359074753
0.002708340215
0.002874055093
0.002814697734
0.002512271141
0.001987236392
0.001296726108
0.0006378192796
4.193350124e-05
0.0005882363915
6.933078209e-06
-0.0003568154774
-0.0004991388008
-0.0004684695775
-0.0002914004212
2.67608749e-06
0.0003844857425
0.0008226447998
0.00127989685
0.001716380758
0.00208092504
0.002323145866
0.002395678034
0.002264664765
0.001921349483
0.001392488886
0.0007431354809
0.000145510814
-0.00051715036
0.0009524956843
0.0003080907546
-9.318260202e-05
-0.0002395319306
-0.0002334087715
-0.0001048905772
0.0001219619469
0.0004258425138
0.0007830217555
0.001161511872
0.001529524853
0.001832931964
0.002021793436
0.002047370695
0.001874521769
0.001493441196
0.0009281306818
0.0002351632532
-0.0004632755624
-0.001300224603
0.0009761941935
0.0002580428445
-0.0001922075451
-0.0003445233034
-0.0003538067975
-0.0002568321773
-7.42335415e-05
0.0001813820386
0.000496456074
0.000850751344
0.001203087397
0.00151055287
0.001712350836
0.00174794072
0.001568442997
0.001150473489
0.0005058727673
-0.0003186038367
-0.001233909603
-0.002384690844
0.0004805223951
-0.0002849583705
-0.0007638474236
-0.0009155459842
-0.000936584069
-0.0008681778799
-0.0007252835961
-0.0005083486293
-0.0002170963473
0.0001392180448
0.000530161395
0.0009074623127
0.001199898021
0.00132657942
0.001211086642
0.0008002248851
7.995850729e-05
-0.0009176373056
-0.00212760623
-0.003656096818
-0.0006863103089
-0.001467111134
-0.001956155732
-0.002107198619
-0.002149972041
-0.002126628025
-0.002042259684
-0.001879648484
-0.001617538027
-0.00124550144
-0.0007790765674
-0.0002628048292
0.0002206860677
0.0005615580813
0.0006378952109
0.0003415687973
-0.0003930066669
-0.001564047146
-0.003134827079
-0.005142063114
-0.002661762171
-0.003423488791
-0.003915366646
-0.004080746425
-0.004178108206
-0.004247155859
-0.004278175828
-0.004229129517
-0.004047536986
-0.003689590989
-0.003140734146
-0.002426721156
-0.001633458985
-0.0009033799407
-0.0004247750308
-0.0003986545507
-0.0009882157162
-0.002260562592
-0.004232724406
-0.006828305988
-0.005554968262
-0.006269890309
-0.006768186547
-0.006982142839
-0.007195535001
-0.007443429212
-0.007697131757
-0.007882200665
-0.007902177624
-0.007660632123
-0.007087370744
-0.006159507508
-0.004943743503
-0.003604850746
-0.002413915611
-0.00171450325
-0.001843198513
-0.003015018962
-0.005368458373
-0.008662256538
-0.009435208004
-0.01008153332
-0.01059839989
-0.01091064493
-0.01132605299
-0.0118759381
-0.01251131336
-0.01311969032
-0.01354785929
-0.01362344346
-0.01318257635
-0.01212122109
-0.01042811701
-0.008256636718
-0.005956400638
-0.004061975344
-0.00319024272
-0.003843147923
-0.006426548131
-0.01049173871
-0.01431698126
-0.01487597003
-0.01542295421
-0.01588219641
-0.01659003488
-0.01758016684
-0.0187870271
-0.02005916169
-0.02117765839
-0.02187372622
-0.02185751729
-0.02087240569
-0.01877206115
-0.01562022607
-0.01179519018
-0.008037446477
-0.005360002905
-0.004760263018
-0.00718128639
-0.01197936853
-0.02015448251
-0.02060471637
-0.02117490788
-0.02179691059
-0.02285226295
-0.02439051645
-0.02633938287
-0.02851377024
-0.03062771897
-0.0323036654
-0.0330954343
-0.03254089095
-0.03028267036
-0.02617886612
-0.02052505553
-0.0142040792
-0.00869168466
-0.005726753684
-0.007219400306
-0.01246654749
-0.02685650477
-0.02716226954
-0.02770271402
-0.02842313339
-0.02978933156
-0.0318892651
-0.03465904611
-0.0378898068
-0.04123409431
-0.04420522666
-0.04618830976
-0.04647896606
-0.04446327085
-0.03966021947
-0.03212120339
-0.0226989237
-0.01326672748
-0.006486085418
-0.005808776295
-0.01076537202
-0.03433486531
-0.03441827681
-0.03478962413
-0.03540471416
-0.03689202701
-0.0394101767
-0.04292021594
-0.04719784675
-0.05184023849
-0.05625855462
-0.05967991594
-0.06119108519
-0.05977971419
-0.05465596313
-0.0454412404
-0.03269988051
-0.01845325847
-0.006246064148
-0.001674106901
-0.00487374157
-0.04261000823
-0.04227958064
-0.04219580574
-0.04229613253
-0.04351388323
-0.04611658012
-0.05009979503
-0.05522056305
-0.0610152423
-0.06679635224
-0.07164029819
-0.07441320127
-0.07383276491
-0.06867508699
-0.05807215084
-0.04206202347
-0.02244023214
-0.00325739901
0.007346895332
0.008341291024
-0.05201051323
-0.05076116924
-0.04967799326
-0.04857909438
-0.04892696465
-0.05112039874
-0.05517309939
-0.06079644938
-0.06743575597
-0.07429012131
-0.08028299839
-0.08407645234
-0.08413088633
-0.07883777391
-0.06684303713
-0.0475236456
-0.02212767377
0.005501589656
0.02471519189
0.03352723183
-0.06365611132
-0.0601894116
-0.05709755451
-0.05376460214
-0.05246574938
-0.05368042796
-0.05736528461
-0.06313849052
-0.07026296521
-0.07780142699
-0.08449311404
-0.08878632499
-0.08889864257
-0.08283991613
-0.06885099948
-0.04562102101
-0.01375169856
0.02441673392
0.055539487
0.07735572727
-0.08018666799
-0.0710752263
-0.06412148089
-0.05716578234
-0.05343194597
-0.05321604184
-0.05625981369
-0.06191485121
-0.06926000388
-0.07711799388
-0.08401325519
-0.08815270856
-0.08748113646
-0.07965685246
-0.06247969687
-0.03405060833
0.005564782414
0.05859396174
0.1058230011
0.1480677088
-0.1105080578
-0.08585536228
-0.0716073306
-0.05897236544
-0.05191477489
-0.04988453425
-0.05210435944
-0.05751052869
-0.06486136349
-0.07271024936
-0.07934166717
-0.08271496057
-0.08052068192
-0.06988758034
-0.04823264267
-0.01272267527
0.03823610374
0.1071320725
0.1779786354
0.256476474
-0.168438241
-0.09990952607
-0.07500962511
-0.05479924803
-0.04462039683
-0.04158694079
-0.04371958649
-0.04938353106
-0.05701919917
-0.06497277496
-0.07136364394
-0.07398191453
-0.07013070785
-0.05701418235
-0.03102878074
0.01192926254
0.07559945381
0.1664042223
0.2761620013
0.4377042646
-0.3984295311
-0.1381006869
-0.0749717918
-0.04708980208
-0.03355087492
-0.03003168862
-0.0328039073
-0.03926673455
-0.04756053695
-0.05594109722
-0.0625021145
-0.06503118097
-0.06099641462
-0.04697020563
-0.01875699421
0.02993538929
0.1069556462
0.2334272359
0.4198801913
0.7800233733
)


// ************************************************************************* //
