/*--------------------------------*- C++ -*----------------------------------*\
  =========                 |
  \\      /  F ield         | OpenFOAM: The Open Source CFD Toolbox
   \\    /   O peration     | Website:  https://openfoam.org
    \\  /    A nd           | Version:  13
     \\/     M anipulation  |
\*---------------------------------------------------------------------------*/
FoamFile
{
    format      ascii;
    class       scalarField;
    location    "39";
    object      p_all;
}
// * * * * * * * * * * * * * * * * * * * * * * * * * * * * * * * * * * * * * //


400
(
-2.057426004e-09
-0.000528042754
-0.001171968711
-0.001670069506
-0.001902766064
-0.001820816295
-0.001399907857
-0.0006292578939
0.0004819207075
0.001889367921
0.003498826477
0.005159793411
0.006676434367
0.007839170802
0.008474872049
0.008503224903
0.007979957949
0.007110803128
0.006227217367
0.00567460746
0.0005350851079
-1.122296212e-05
-0.0005796364314
-0.0009774299553
-0.001151969727
-0.001076521398
-0.0007300911184
-9.776397627e-05
0.0008206666758
0.001995984394
0.003354683872
0.004771900026
0.006078683771
0.007090252241
0.007651573155
0.007689361386
0.007250279502
0.006506006197
0.005717392849
0.005155153978
0.001204215991
0.0005203785366
-8.023674054e-05
-0.0004433820155
-0.0006028395504
-0.0005661624701
-0.0003182134339
0.0001634441135
0.0008950894182
0.001869196165
0.003036078302
0.004292287128
0.005483678472
0.006429926853
0.006969748742
0.007015367181
0.006593155777
0.005842961025
0.004969725944
0.004237293744
0.00168457667
0.0008026734405
8.496182849e-05
-0.000321367558
-0.0005281077655
-0.0005756314294
-0.0004523950602
-0.0001237486597
0.0004488643065
0.001284953875
0.002360097802
0.00358695872
0.004811635797
0.005834614834
0.006458293366
0.00655102252
0.006100973517
0.005220985519
0.00409665879
0.003062679582
0.00172124543
0.0006389898494
-0.0002218482283
-0.0007152904133
-0.001019558029
-0.00120020332
-0.001243228581
-0.00109558705
-0.0006895769549
2.864127208e-05
0.001066458504
0.002356468973
0.003741853632
0.004990738978
0.005844155383
0.006093366176
0.005657782199
0.004610813204
0.003138642809
0.001707360043
0.001103015466
-0.0001578250649
-0.001163266804
-0.001773379722
-0.002222432796
-0.002593074471
-0.002862544642
-0.002953062083
-0.002759901837
-0.002184273006
-0.001173621002
0.000239167825
0.001903131985
0.003551092514
0.004840375389
0.005443290827
0.005160168987
0.003986841569
0.002107397466
0.0001806544337
-0.0003476796555
-0.001754905408
-0.002898210851
-0.003651957333
-0.004297165685
-0.004927412229
-0.005506960943
-0.005928414934
-0.006041941609
-0.005689785243
-0.004752611666
-0.003205524367
-0.001165500749
0.001076519905
0.003079088639
0.004345650881
0.00448045337
0.003323533108
0.001017667815
-0.001515693572
-0.002767527802
-0.00428268619
-0.005553123765
-0.006476913068
-0.007373907171
-0.008345692355
-0.00934304831
-0.01022723477
-0.01079688391
-0.01082049812
-0.01008598361
-0.008468740662
-0.006009835846
-0.00298653022
6.690457002e-05
0.002437858067
0.00342980289
0.002590707695
-8.155821495e-05
-0.003333857225
-0.006240449759
-0.007820419399
-0.009201704178
-0.01031549465
-0.0115152587
-0.012912247
-0.0144481507
-0.01595589393
-0.01718032479
-0.01780388819
-0.01749398748
-0.01598031132
-0.01316335254
-0.009237519366
-0.004784459645
-0.0007523525156
0.001744579598
0.001756751715
-0.001070175177
-0.005118596239
-0.0107879234
-0.01238532763
-0.01384852574
-0.01515024425
-0.01667812817
-0.01856110478
-0.02074171296
-0.02303293322
-0.02512967923
-0.02662308415
-0.02703901508
-0.02591719611
-0.02294645158
-0.01813680271
-0.01201680526
-0.005725397687
-0.0008810674633
0.0008093787539
-0.001706687808
-0.006520235613
-0.01636903009
-0.01793107846
-0.01942070132
-0.0208593514
-0.02268127471
-0.02505010347
-0.02792438503
-0.03110956673
-0.03425996501
-0.0368793077
-0.03834462997
-0.03797569473
-0.03519492607
-0.02970963884
-0.02184581843
-0.01279324443
-0.004663550493
-0.0001717767759
-0.001550054891
-0.006863099693
-0.02289946287
-0.0243627326
-0.02577364718
-0.02721095437
-0.02919063602
-0.03194068814
-0.03545418769
-0.03954126629
-0.04382592159
-0.0477345636
-0.05050519451
-0.05124328967
-0.04903631297
-0.04323850824
-0.03379934528
-0.02172736699
-0.009456983743
-0.0008411064006
0.0001735022628
-0.004949776869
-0.03030110138
-0.03157415516
-0.03271302645
-0.03387436565
-0.03573061574
-0.03861922041
-0.04258468638
-0.04744628184
-0.05280044431
-0.05800330348
-0.06216561235
-0.06418789654
-0.0628671572
-0.05713691375
-0.04645563269
-0.0313944557
-0.01437828033
-0.0002835454622
0.004806098038
0.001218774182
-0.03860410227
-0.03951321583
-0.04002771512
-0.04044281477
-0.04172074634
-0.04436368407
-0.04847117516
-0.05385746599
-0.06007627544
-0.06640609533
-0.07183651889
-0.07508634429
-0.07468811862
-0.06918830952
-0.05751882714
-0.03962504834
-0.01751318268
0.003338756403
0.01461105289
0.0148009346
-0.04814991914
-0.04828448097
-0.0475239594
-0.04645759812
-0.04653148283
-0.04844691869
-0.05232475088
-0.05792845761
-0.0647278608
-0.07189389686
-0.07828082721
-0.08243111474
-0.08263886917
-0.07711593448
-0.06431677019
-0.04351448076
-0.01595903322
0.01294246692
0.03303151524
0.04033402639
-0.0599381591
-0.05831662526
-0.05506928666
-0.051444779
-0.04956903933
-0.05027075553
-0.05358299766
-0.05913109963
-0.06623323756
-0.07390204191
-0.08082091557
-0.08533601432
-0.08550133877
-0.07921888002
-0.06452871428
-0.04010140195
-0.006288771555
0.03228426546
0.06447511221
0.08326334801
-0.07621644227
-0.07067826487
-0.06263403843
-0.05495796168
-0.05037292993
-0.0494873236
-0.05202740336
-0.05735296299
-0.06454772655
-0.07240852815
-0.07940794658
-0.0836649158
-0.08296504603
-0.07486726059
-0.05697332208
-0.02736458422
0.01452871761
0.06545591921
0.1143551182
0.1501534603
-0.1041374019
-0.0879118233
-0.06997228181
-0.05626781544
-0.04836931434
-0.04576495824
-0.04755237378
-0.05267222232
-0.05988673451
-0.0677411269
-0.07448950253
-0.07802332422
-0.07585253348
-0.06513230267
-0.04286818287
-0.006235416336
0.04671400361
0.115285122
0.1914477669
0.2582553109
-0.1759492272
-0.1148679922
-0.07360514411
-0.05189318324
-0.04118473485
-0.03756887661
-0.03926198143
-0.04469483107
-0.05226196617
-0.06029754393
-0.06691959616
-0.06987608547
-0.06648730467
-0.05357191518
-0.02740034129
0.0163691831
0.08268564478
0.177329116
0.3053759665
0.4526472468
-0.3558202701
-0.1552324816
-0.07042266022
-0.04278204344
-0.03135191782
-0.02759651413
-0.02976164922
-0.03592907029
-0.04416119986
-0.05266174824
-0.05952020751
-0.06247595986
-0.05880000507
-0.04515943924
-0.01725651903
0.03078400693
0.1083850784
0.2333167924
0.4347646219
0.7358337774
)


// ************************************************************************* //
