/*--------------------------------*- C++ -*----------------------------------*\
  =========                 |
  \\      /  F ield         | OpenFOAM: The Open Source CFD Toolbox
   \\    /   O peration     | Website:  https://openfoam.org
    \\  /    A nd           | Version:  13
     \\/     M anipulation  |
\*---------------------------------------------------------------------------*/
FoamFile
{
    format      ascii;
    class       surfaceScalarField;
    location    "39";
    object      phi;
}
// * * * * * * * * * * * * * * * * * * * * * * * * * * * * * * * * * * * * * //

dimensions      [0 3 -1 0 0 0 0];

internalField   nonuniform List<scalar> 
760
(
-1.321910602e-05
1.321829408e-05
-7.201792534e-05
5.879881966e-05
-0.0001620728141
9.005490243e-05
-0.0002652229201
0.0001031501435
-0.0003682425447
0.0001030196217
-0.0004615043643
9.326175038e-05
-0.000537750028
7.624558563e-05
-0.0005912421614
5.349213228e-05
-0.000617509367
2.626730696e-05
-0.0006135893515
-3.919875743e-06
-0.0005784599839
-3.512928335e-05
-0.0005138427603
-6.461723095e-05
-0.0004246594996
-8.918333761e-05
-0.0003192818089
-0.0001053777754
-0.0002092254484
-0.0001100563943
-0.0001081385967
-0.0001010868191
-2.992493958e-05
-7.82135913e-05
1.414943353e-05
-4.407433296e-05
2.190961127e-05
-7.760213926e-06
2.190949513e-05
-6.870346841e-05
8.192176601e-05
-0.000245775679
0.0002358710139
-0.0004934733468
0.0003377525165
-0.0007722780031
0.0003819548124
-0.001050409523
0.0003811512568
-0.001303006227
0.0003458585903
-0.001510604272
0.0002838436591
-0.001657872293
0.000200760023
-0.001733199861
0.0001015946673
-0.001729305633
-7.814248354e-06
-0.001643831319
-0.0001206036137
-0.001481413933
-0.0002270345254
-0.001254381771
-0.000316215389
-0.0009832948306
-0.0003764646593
-0.0006961415953
-0.0003972096337
-0.0004257314181
-0.0003714970175
-0.0002049931729
-0.0002989518565
-5.981219932e-05
-0.0001892553694
-4.921558257e-07
-6.708042141e-05
2.141730657e-05
-0.0001229342593
0.0002048560389
-0.0004149723944
0.0005279091937
-0.0008086682649
0.0007314483461
-0.001247165261
0.0008204517138
-0.001684661692
0.0008186476333
-0.002084430454
0.0007456274059
-0.002416965872
0.000616379214
-0.002658576492
0.0004423707667
-0.002790991844
0.0002340100504
-0.002802413799
3.607653407e-06
-0.002687902341
-0.0002351151514
-0.002452961792
-0.000461975136
-0.00211417189
-0.0006550053022
-0.001700374374
-0.0007902621432
-0.001251822424
-0.0008457615312
-0.0008167446906
-0.0008065746874
-0.0004446232423
-0.0006710732413
-0.0001762319986
-0.0004576465788
-3.221221114e-05
-0.0002111002736
-1.079489057e-05
-0.0001720784044
0.0003769344196
-0.0005725607684
0.0009283916306
-0.001105967763
0.001264855409
-0.001698036418
0.001412520364
-0.002290597058
0.001411208191
-0.002837254441
0.001292284692
-0.003300217326
0.001079342058
-0.003648292095
0.000790445571
-0.00385633899
0.0004420570139
-0.00390581622
5.308493757e-05
-0.003787747795
-0.000353183568
-0.003504024965
-0.0007456980065
-0.003071272607
-0.001087757715
-0.002522630977
-0.001338903791
-0.001907996268
-0.001460396188
-0.001290905583
-0.001423665261
-0.0007407541799
-0.001221224525
-0.0003202708315
-0.0008781298651
-7.110222303e-05
-0.0004602688963
-8.189708666e-05
-0.0002170221168
0.0005939564899
-0.0007188332637
0.001430202747
-0.001385655731
0.001931677927
-0.002127123466
0.002153988174
-0.00287437405
0.002158458814
-0.003573195265
0.001991105883
-0.004178979285
0.001685126019
-0.004653584353
0.001265050601
-0.004964198625
0.0007526712992
-0.005084017364
0.0001729037202
-0.004995023277
-0.0004421776142
-0.004691189011
-0.001049532273
-0.004183518213
-0.001595428559
-0.003504389917
-0.002018032134
-0.002710450236
-0.002254335861
-0.001881577981
-0.00225253744
-0.001113233165
-0.001989569246
-0.000500821027
-0.001490541952
-0.0001191421236
-0.0008419477929
-0.0002010391892
-0.0002573667285
0.0008513232327
-0.0008513398481
0.002024175785
-0.001642296749
0.002722634783
-0.002526557327
0.003038248765
-0.003426901146
0.003058802684
-0.004283388709
0.00284759349
-0.005046214705
0.002447952024
-0.005671018065
0.001889853944
-0.00611675139
0.001198404612
-0.006345981839
0.0004021341749
-0.006327843259
-0.0004603161786
-0.006042476153
-0.001334899384
-0.005488323681
-0.002149581076
-0.004689981999
-0.002816373881
-0.003705727622
-0.003238590276
-0.002631183387
-0.003327081664
-0.001594226929
-0.003026525669
-0.0007363872021
-0.002348381658
-0.0001821206457
-0.001396214336
-0.0003831598229
-0.0002911841162
0.001142507399
-0.000964125251
0.002697116912
-0.001864163758
0.003622673244
-0.00287814563
0.004052230601
-0.003923464555
0.004104121606
-0.004937001524
0.003861130487
-0.005865888732
0.003376839266
-0.006661001939
0.002684967176
-0.00727343962
0.00181084231
-0.007653973245
0.0007826678132
-0.007755805664
-0.0003584837546
-0.007539788455
-0.00155091661
-0.006984027542
-0.002705342038
-0.006095814403
-0.003704587087
-0.004925704256
-0.004408700481
-0.003579479927
-0.004673306022
-0.002220388243
-0.004385617365
-0.00105084567
-0.003517924235
-0.0002684677802
-0.002178592215
-0.0006516275979
-0.0003159655896
0.001458472991
-0.001048737575
0.003429888943
-0.002034531709
0.00460846739
-0.003154903767
0.005172602644
-0.004325133087
0.005274350904
-0.005481849224
0.005017846613
-0.006571932062
0.00446692211
-0.007544120816
0.00365715595
-0.008343811019
0.002610532548
-0.008911130165
0.001349987001
-0.009182805992
-8.680789768e-05
-0.009097012583
-0.001636710016
-0.008604584146
-0.003197770504
-0.007684199005
-0.004624972274
-0.006364068444
-0.005728831087
-0.004746043436
-0.006291331064
-0.003022882271
-0.006108778553
-0.001469581317
-0.0050712252
-0.0003882445393
-0.003259928986
-0.001039872137
-0.0003291956127
0.001787668567
-0.001096443007
0.004197136357
-0.002135079606
0.005647104019
-0.003325368292
0.006362891348
-0.004583651472
0.006532634082
-0.005849373187
0.006283568307
-0.00707257479
0.005690123691
-0.008203824589
0.004788405742
-0.00918725814
0.00359396612
-0.009956893426
0.002119622337
-0.01043606922
0.0003923679498
-0.01054224952
-0.001530529675
-0.01019503481
-0.003544985198
-0.009334089062
-0.005485918037
-0.00794662895
-0.007116291219
-0.006105926727
-0.008132033306
-0.004012930211
-0.008201775084
-0.002014592963
-0.007069562457
-0.0005528022102
-0.004721719736
-0.00159267435
-0.0003297928648
0.002117461416
-0.001101701838
0.004969045311
-0.002151423325
0.006696825514
-0.003361077846
0.00757254589
-0.004650845558
0.007822401804
-0.005965956828
0.007598679566
-0.007263379351
0.006987546186
-0.008500565905
0.00602559227
-0.00962701174
0.004720411956
-0.01057860266
0.003071213291
-0.01127459519
0.001088360534
-0.01161814867
-0.001186976133
-0.01150162898
-0.003661504855
-0.01082052608
-0.006167020922
-0.009503001316
-0.008433815975
-0.007560608781
-0.01007442584
-0.005160873244
-0.01060151063
-0.002696115539
-0.009534320162
-0.0007741503242
-0.006643684951
-0.002366824677
-0.0003199349286
0.002437396359
-0.00106668673
0.005715797093
-0.002080423936
0.007710562713
-0.003246814629
0.008738936593
-0.004492307996
0.009067895184
-0.005770873383
0.008877244947
-0.007050316212
0.008266988988
-0.008300542256
0.00727581828
-0.009484302195
0.005904171875
-0.0105499627
0.004136873801
-0.01142562079
0.001964018655
-0.01201417226
-0.0005984246223
-0.01219379462
-0.003481882455
-0.01182096883
-0.006539846687
-0.0107553786
-0.009499406187
-0.008913750576
-0.01191605386
-0.006370857764
-0.01314440343
-0.003498965137
-0.01240621279
-0.001063151367
-0.009079498722
-0.003429976043
-0.0003074094307
0.002744805806
-0.0010065875
0.006414975162
-0.001938354856
0.008642330072
-0.002991899024
0.009792480775
-0.004102813505
0.01017880968
-0.005237449033
0.01001188048
-0.006378628091
0.009408168025
-0.007514083914
0.008411274068
-0.008627331905
0.007017419834
-0.009689844324
0.005199386202
-0.0106531425
0.002927316826
-0.01143756794
0.0001860008328
-0.01192945627
-0.002989994111
-0.01196499052
-0.006504312419
-0.011343739
-0.01012065769
-0.009868967796
-0.01339082505
-0.00746011422
-0.015553257
-0.00436383453
-0.01550249247
-0.001425535619
-0.01201779763
-0.004855511659
-0.0003089282851
0.003053734091
-0.0009555674946
0.00706161438
-0.001768490154
0.009455252751
-0.002639390713
0.01066338136
-0.003518262228
0.01105768122
-0.004389722838
0.0108833411
-0.005256719477
0.01027516466
-0.006129514844
0.009284069408
-0.007017707467
0.007905612422
-0.007923327041
0.006105005743
-0.008832213633
0.003836203394
-0.009704214903
0.00105800209
-0.01045072669
-0.002243482329
-0.01092412033
-0.006030918771
-0.01089502868
-0.01014974933
-0.01006488826
-0.01422096547
-0.008157305575
-0.01746083968
-0.005167631654
-0.01849216638
-0.001854348989
-0.01533108029
-0.006709860643
-0.000355270099
0.00340900418
-0.0009733332867
0.007679677569
-0.00164605763
0.01012797712
-0.002268710664
0.01128603443
-0.002816840361
0.01160581094
-0.003303694024
0.01137019478
-0.003759410482
0.01073088112
-0.004220925215
0.009745584128
-0.004726147428
0.008410834611
-0.005309763228
0.006688621515
-0.005996657169
0.004523097308
-0.006791798786
0.001853143688
-0.007660586062
-0.001374695063
-0.008503029796
-0.005188475038
-0.00911317852
-0.0095396006
-0.009142508341
-0.01419163564
-0.008128400824
-0.01847494719
-0.005711156637
-0.02090941057
-0.002318284791
-0.01872395213
-0.009028145431
-0.0005003770747
0.003909381245
-0.001151296634
0.008330597118
-0.001674821285
0.01065150179
-0.001981640683
0.01159285385
-0.002095672892
0.01171984317
-0.002075736161
0.01135025805
-0.001988477728
0.01064362269
-0.001901151879
0.009658258283
-0.001878927712
0.008388610443
-0.001985971699
0.006795665497
-0.002282467523
0.004819593123
-0.002818756274
0.002389432433
-0.003622152687
-0.0005712986541
-0.004668843313
-0.004141784412
-0.005834635313
-0.008373808598
-0.006807664003
-0.01321860695
-0.00701666902
-0.01826594217
-0.005716401124
-0.02220967846
-0.002739567109
-0.02170078614
-0.01176771254
-0.0008308854179
0.004740266655
-0.001604833019
0.0091045447
-0.001950979656
0.01099764842
-0.001839383196
0.01148125739
-0.00138543534
0.01126589531
-0.0007181322688
0.01068295499
4.821266561e-05
0.009877277766
0.0008164041255
0.008890066841
0.001495360078
0.00770965451
0.001998423638
0.006292601954
0.002238517057
0.004579499717
0.002128354472
0.002499595026
0.001583159671
-2.610384718e-05
0.0005450311644
-0.003103655903
-0.0009843149282
-0.006844462505
-0.002828402059
-0.01137451982
-0.004459126189
-0.01663521804
-0.004810489641
-0.021858315
-0.00294429095
-0.02356698483
-0.01471200349
-0.001465682564
0.006205949211
-0.002379876787
0.01001873891
-0.002373445142
0.01099121676
-0.001603542265
0.0107113545
-0.0003496268015
0.01001197984
0.001163642109
0.009169686084
0.002771841555
0.008269078342
0.004349533657
0.007312374767
0.00579162328
0.006267564917
0.006998014544
0.005086210716
0.007865492985
0.003712021295
0.00828228507
0.002082802954
0.008123822058
0.0001323591708
0.007264496622
-0.002244330465
0.005585212938
-0.005165178823
0.003073872928
-0.008863179809
7.897185307e-05
-0.01364031697
-0.002445747437
-0.01933359571
-0.002601078043
-0.02341165422
-0.01731308153
-0.002365504024
0.008571453226
-0.002963808789
0.01061704369
-0.001922814206
0.009950222153
8.111513794e-05
0.008707425152
0.002534886924
0.007558208052
0.005140255508
0.006564317502
0.007719753367
0.005689580496
0.01015462132
0.004877506833
0.01234957332
0.004072612934
0.01421200215
0.003223781905
0.01564054009
0.002283483366
0.01651758889
0.001205754156
0.0166970996
-4.715153985e-05
0.0160271262
-0.001574357066
0.01430509001
-0.003443142634
0.01133283071
-0.005890920516
0.007055613659
-0.00936309991
0.002201623595
-0.01447960565
-0.001027320573
-0.02018271005
-0.01834040211
-0.0021503429
0.01072179612
-7.199464883e-05
0.008538695496
0.003741898402
0.006136329126
0.007719772751
0.004729550814
0.01156187088
0.003716109917
0.01514101038
0.002985177989
0.01839885597
0.002431734893
0.02130155533
0.00197480746
0.02381243353
0.001561734731
0.02587973468
0.001156480751
0.02743056887
0.0007326491664
0.0283647281
0.0002715949305
0.0285756174
-0.0002580408405
0.02788766521
-0.0008864048718
0.02609934125
-0.00165481868
0.02290826564
-0.002699844899
0.01790696681
-0.004361801084
0.01076690813
-0.007339546963
0.002912180359
-0.01232798228
-0.01542822175
0.01072179613
0.01926049164
0.02539682077
0.03012637157
0.03384248148
0.03682765945
0.03925939433
0.04123420178
0.04279593651
0.04395241726
0.04468506643
0.04495666136
0.04469862052
0.04381221565
0.04215739697
0.03945755207
0.03509575099
0.02775620403
0.01542822175
)
;

boundaryField
{
    movingWall
    {
        type            calculated;
        value           uniform 0;
    }
    fixedWalls
    {
        type            calculated;
        value           uniform 0;
    }
    frontAndBack
    {
        type            empty;
    }
}


// ************************************************************************* //
