/*--------------------------------*- C++ -*----------------------------------*\
  =========                 |
  \\      /  F ield         | OpenFOAM: The Open Source CFD Toolbox
   \\    /   O peration     | Website:  https://openfoam.org
    \\  /    A nd           | Version:  13
     \\/     M anipulation  |
\*---------------------------------------------------------------------------*/
FoamFile
{
    format      ascii;
    class       surfaceScalarField;
    location    "39";
    object      phi_0;
}
// * * * * * * * * * * * * * * * * * * * * * * * * * * * * * * * * * * * * * //

dimensions      [0 3 -1 0 0 0 0];

internalField   nonuniform List<scalar> 
760
(
-1.321911457e-05
1.321829612e-05
-7.201790481e-05
5.879879632e-05
-0.0001620727514
9.005481203e-05
-0.0002652229596
0.0001031500843
-0.000368242694
0.0001030197396
-0.0004615044676
9.326202034e-05
-0.0005377499447
7.624578653e-05
-0.0005912419294
5.349204706e-05
-0.0006175091753
2.626693607e-05
-0.0006135893558
-3.920306318e-06
-0.0005784601512
-3.51295295e-05
-0.0005138429579
-6.461719035e-05
-0.000424659599
-8.918310136e-05
-0.000319281772
-0.0001053775421
-0.0002092253328
-0.0001100563164
-0.0001081384741
-0.000101086908
-2.992482674e-05
-7.821374714e-05
1.414954901e-05
-4.407445769e-05
2.190970115e-05
-7.760317185e-06
2.190945919e-05
-6.870349778e-05
8.192179181e-05
-0.0002457757306
0.0002358710925
-0.0004934732575
0.0003377525256
-0.0007722778556
0.0003819546595
-0.0010504095
0.0003811510386
-0.001303006396
0.0003458585194
-0.001510604503
0.0002838438555
-0.001657872386
0.0002007603872
-0.001733199744
0.0001015949648
-0.001729305434
-7.814172522e-06
-0.001643831165
-0.0001206037575
-0.001481413912
-0.0002270347384
-0.001254381874
-0.0003162155223
-0.0009832949664
-0.0003764646755
-0.0006961416665
-0.0003972096214
-0.0004257313824
-0.0003714970897
-0.0002049930519
-0.0002989520354
-5.981207332e-05
-0.0001892555689
-4.920051785e-07
-6.708053801e-05
2.141716485e-05
-0.0001229342319
0.0002048559836
-0.0004149725138
0.0005279092389
-0.0008086683479
0.0007314485061
-0.001247165188
0.0008204518325
-0.001684661511
0.0008186475724
-0.002084430326
0.0007456271817
-0.002416965912
0.0006163789873
-0.002658576658
0.0004423706947
-0.002790991983
0.0002340101496
-0.002802413837
3.607821942e-06
-0.00268790226
-0.0002351150293
-0.002452961675
-0.0004619751136
-0.002114171857
-0.0006550053552
-0.001700374477
-0.000790262203
-0.00125182259
-0.0008457615614
-0.000816744775
-0.0008065747054
-0.0004446231485
-0.0006710732761
-0.0001762317864
-0.0004576466354
-3.221207791e-05
-0.0002111003507
-1.079502541e-05
-0.0001720782778
0.0003769343481
-0.0005725607669
0.000928391499
-0.001105967887
0.001264855401
-0.001698036539
0.001412520505
-0.002290597057
0.001411208367
-0.002837254317
0.001292284765
-0.003300217193
0.001079341981
-0.003648292068
0.0007904454188
-0.003856339069
0.0004420569071
-0.003905816293
5.308493971e-05
-0.003787747823
-0.0003531834836
-0.003504024927
-0.0007456978889
-0.003071272575
-0.001087757617
-0.002522631039
-0.001338903725
-0.001907996417
-0.00146039613
-0.001290905688
-0.001423665185
-0.0007407541119
-0.001221224437
-0.0003202706334
-0.0008781298031
-7.110211723e-05
-0.0004602689071
-8.189717118e-05
-0.0002170220529
0.0005939565656
-0.0007188331343
0.00143020267
-0.001385655696
0.001931677778
-0.002127123544
0.002153988089
-0.002874374161
0.002158458852
-0.003573195309
0.001991105997
-0.004178979235
0.001685126105
-0.004653584276
0.001265050594
-0.004964198582
0.000752671217
-0.005084017346
0.0001729036276
-0.004995023268
-0.0004421776593
-0.004691188994
-0.001049532241
-0.004183518211
-0.001595428469
-0.003504389981
-0.002018032023
-0.002710450361
-0.00225433575
-0.001881578074
-0.002252537323
-0.001113233129
-0.001989569126
-0.0005008209018
-0.001490541862
-0.0001191420698
-0.0008419477727
-0.0002010392245
-0.0002573668206
0.0008513233386
-0.0008513397937
0.002024175885
-0.001642296647
0.002722634763
-0.002526557271
0.003038248663
-0.003426901173
0.003058802594
-0.004283388782
0.002847593477
-0.005046214761
0.002447952081
-0.005671018075
0.001889854009
-0.006116751361
0.001198404627
-0.006345981769
0.0004021341266
-0.006327843165
-0.0004603162627
-0.006042476068
-0.001334899456
-0.005488323654
-0.002149581103
-0.004689982058
-0.00281637386
-0.003705727737
-0.003238590222
-0.002631183477
-0.003327081588
-0.001594226931
-0.003026525585
-0.0007363871531
-0.002348381595
-0.0001821206366
-0.001396214317
-0.0003831598274
-0.000291184213
0.001142507368
-0.0009641253221
0.002697116991
-0.001864163743
0.003622673328
-0.002878145563
0.004052230619
-0.003923464496
0.004104121562
-0.004937001519
0.003861130432
-0.00586588878
0.003376839248
-0.006661002006
0.002684967199
-0.007273439664
0.001810842341
-0.00765397322
0.0007826678131
-0.007755805559
-0.0003584838082
-0.007539788323
-0.001550916708
-0.006984027463
-0.002705342147
-0.006095814422
-0.003704587171
-0.004925704344
-0.00440870052
-0.003579480012
-0.004673306016
-0.002220388275
-0.004385617332
-0.001050845672
-0.003517924205
-0.0002684677919
-0.002178592201
-0.0006516275855
-0.0003159655688
0.001458472904
-0.00104873764
0.003429888901
-0.002034531765
0.004608467423
-0.003154903769
0.005172602701
-0.00432513304
0.005274350938
-0.005481849177
0.005017846614
-0.006571932064
0.0044669221
-0.007544120875
0.003657155953
-0.0083438111
0.002610532568
-0.008911130203
0.001349987021
-0.009182805942
-8.680790535e-05
-0.009097012469
-0.001636710071
-0.008604584042
-0.003197770599
-0.007684198972
-0.004624972379
-0.00636406848
-0.005728831167
-0.004746043494
-0.006291331101
-0.003022882312
-0.006108778555
-0.001469581342
-0.00507122519
-0.0003882445521
-0.003259928974
-0.001039872117
-0.0003291955427
0.001787668555
-0.001096442993
0.004197136294
-0.002135079637
0.005647103978
-0.003325368319
0.006362891349
-0.004583651462
0.00653263411
-0.005849373151
0.006283568338
-0.007072574777
0.005690123716
-0.00820382463
0.004788405767
-0.009187258221
0.003593966154
-0.009956893496
0.00211962238
-0.01043606922
0.0003923679863
-0.01054224946
-0.001530529666
-0.01019503473
-0.003544985227
-0.009334089001
-0.005485918094
-0.007946628936
-0.007116291279
-0.006105926746
-0.008132033348
-0.004012930241
-0.008201775101
-0.002014592989
-0.007069562456
-0.0005528022164
-0.004721719726
-0.001592674333
-0.0003297928484
0.002117461464
-0.0011017018
0.00496904531
-0.00215142331
0.006696825473
-0.003361077844
0.007572545847
-0.004650845544
0.007822401782
-0.0059659568
0.007598679564
-0.007263379339
0.006987546197
-0.008500565935
0.006025592294
-0.009627011812
0.004720411997
-0.01057860274
0.00307121335
-0.01127459523
0.0010883606
-0.01161814866
-0.001186976077
-0.01150162893
-0.003661504826
-0.01082052602
-0.006167020924
-0.009503001279
-0.008433815997
-0.007560608772
-0.01007442587
-0.005160873255
-0.01060151064
-0.002696115554
-0.009534320168
-0.0007741503245
-0.006643684946
-0.00236682467
-0.0003199349651
0.002437396392
-0.001066686734
0.005715797127
-0.002080423922
0.007710562707
-0.003246814604
0.008738936555
-0.00449230796
0.009067895135
-0.005770873341
0.008877244903
-0.007050316186
0.008266988956
-0.008300542268
0.007275818268
-0.009484302247
0.005904171891
-0.01054996277
0.004136873847
-0.01142562084
0.001964018721
-0.01201417227
-0.0005984245545
-0.0121937946
-0.003481882402
-0.01182096879
-0.006539846658
-0.01075537857
-0.009499406181
-0.008913750557
-0.01191605387
-0.00637085776
-0.01314440345
-0.00349896514
-0.01240621279
-0.001063151365
-0.009079498723
-0.003429976047
-0.0003074094638
0.002744805801
-0.001006587548
0.00641497518
-0.001938354878
0.008642330084
-0.002991899009
0.009792480763
-0.004102813464
0.01017880965
-0.005237448979
0.01001188042
-0.006378628046
0.009408167971
-0.007514083897
0.008411274022
-0.008627331925
0.007017419811
-0.009689844369
0.00519938621
-0.01065314254
0.002927316862
-0.01143756797
0.0001860008831
-0.01192945628
-0.002989994061
-0.01196499051
-0.006504312382
-0.01134373898
-0.01012065767
-0.009868967781
-0.01339082505
-0.00746011421
-0.015553257
-0.004363834524
-0.01550249247
-0.001425535617
-0.01201779763
-0.004855511666
-0.0003089282918
0.003053734078
-0.0009555675492
0.007061614374
-0.001768490203
0.009455252766
-0.002639390726
0.01066338138
-0.003518262204
0.01105768122
-0.004389722791
0.01088334107
-0.005256719424
0.01027516461
-0.006129514804
0.009284069358
-0.007017707454
0.007905612378
-0.007923327057
0.006105005718
-0.008832213666
0.003836203391
-0.009704214936
0.001058002106
-0.01045072671
-0.002243482304
-0.01092412034
-0.006030918745
-0.01089502868
-0.01014974931
-0.01006488826
-0.01422096545
-0.008157305567
-0.01746083967
-0.005167631648
-0.01849216638
-0.001854348989
-0.01533108029
-0.006709860648
-0.0003552700978
0.00340900418
-0.0009733333186
0.007679677559
-0.001646057676
0.01012797714
-0.002268710697
0.01128603447
-0.002816840365
0.01160581099
-0.003303694
0.01137019479
-0.00375941044
0.0107308811
-0.004220925171
0.009745584092
-0.004726147398
0.008410834564
-0.005309763222
0.006688621469
-0.005996657184
0.004523097275
-0.006791798812
0.001853143671
-0.007660586087
-0.001374695066
-0.008503029814
-0.005188475031
-0.009113178529
-0.009539600588
-0.009142508343
-0.01419163563
-0.008128400823
-0.01847494718
-0.005711156635
-0.02090941056
-0.002318284793
-0.01872395213
-0.00902814543
-0.0005003770849
0.00390938125
-0.001151296635
0.008330597115
-0.001674821302
0.0106515018
-0.001981640719
0.01159285389
-0.002095672926
0.01171984322
-0.002075736173
0.01135025809
-0.001988477714
0.0106436227
-0.001901151848
0.009658258264
-0.00187892768
0.008388610401
-0.001985971681
0.006795665446
-0.002282467522
0.004819593076
-0.002818756286
0.002389432397
-0.003622152703
-0.000571298674
-0.004668843327
-0.004141784418
-0.005834635322
-0.008373808596
-0.006807664008
-0.01321860694
-0.007016669023
-0.01826594216
-0.005716401127
-0.02220967845
-0.002739567111
-0.02170078613
-0.01176771253
-0.0008308854376
0.004740266647
-0.001604832999
0.0091045447
-0.001950979638
0.01099764842
-0.001839383217
0.0114812574
-0.001385435389
0.01126589534
-0.0007181323155
0.01068295502
4.821264328e-05
0.009877277793
0.0008164041307
0.008890066852
0.001495360099
0.007709654502
0.00199842366
0.006292601932
0.002238517071
0.00457949969
0.002128354477
0.002499595001
0.00158315967
-2.610386487e-05
0.0005450311601
-0.003103655913
-0.0009843149332
-0.006844462509
-0.002828402065
-0.01137451982
-0.004459126195
-0.01663521804
-0.004810489645
-0.021858315
-0.002944290951
-0.02356698482
-0.01471200349
-0.001465682575
0.006205949181
-0.002379876769
0.01001873891
-0.00237344511
0.01099121673
-0.001603542267
0.01071135447
-0.0003496268415
0.01001197982
0.001163642055
0.009169686082
0.002771841514
0.008269078364
0.004349533642
0.007312374803
0.005791623287
0.006267564952
0.006998014562
0.005086210743
0.007865493005
0.003712021311
0.008282285086
0.002082802961
0.008123822066
0.0001323591707
0.007264496624
-0.00224433047
0.005585212937
-0.005165178829
0.003073872924
-0.008863179815
7.89718466e-05
-0.01364031697
-0.002445747441
-0.01933359572
-0.002601078044
-0.02341165422
-0.01731308153
-0.002365504007
0.008571453182
-0.002963808791
0.01061704368
-0.001922814182
0.009950222102
8.111514526e-05
0.008707425119
0.002534886909
0.007558208035
0.005140255481
0.006564317507
0.007719753342
0.005689580526
0.01015462131
0.00487750688
0.01234957332
0.004072612987
0.01421200216
0.003223781953
0.0156405401
0.002283483402
0.0165175889
0.001205754178
0.0166970996
-4.715153043e-05
0.0160271262
-0.001574357065
0.01430509001
-0.003443142639
0.01133283071
-0.005890920523
0.007055613656
-0.009363099916
0.002201623593
-0.01447960565
-0.001027320573
-0.02018271005
-0.01834040211
-0.002150342842
0.01072179607
-7.199462692e-05
0.008538695422
0.003741898448
0.006136329116
0.007719772776
0.004729550803
0.01156187089
0.003716109923
0.01514101038
0.002985178009
0.01839885596
0.002431734922
0.02130155532
0.00197480749
0.02381243352
0.001561734757
0.02587973467
0.00115648077
0.02743056887
0.0007326491775
0.02836472809
0.0002715949347
0.0285756174
-0.0002580408404
0.0278876652
-0.0008864048742
0.02609934125
-0.001654818683
0.02290826564
-0.002699844902
0.01790696681
-0.004361801086
0.01076690813
-0.007339546963
0.00291218036
-0.01232798228
-0.01542822175
0.01072179616
0.01926049166
0.02539682082
0.03012637162
0.0338424815
0.03682765945
0.03925939432
0.04123420177
0.04279593649
0.04395241724
0.04468506641
0.04495666135
0.04469862051
0.04381221565
0.04215739697
0.03945755207
0.03509575099
0.02775620403
0.01542822175
)
;

boundaryField
{
    movingWall
    {
        type            calculated;
        value           uniform 0;
    }
    fixedWalls
    {
        type            calculated;
        value           uniform 0;
    }
    frontAndBack
    {
        type            empty;
    }
}


// ************************************************************************* //
