/*--------------------------------*- C++ -*----------------------------------*\
  =========                 |
  \\      /  F ield         | OpenFOAM: The Open Source CFD Toolbox
   \\    /   O peration     | Website:  https://openfoam.org
    \\  /    A nd           | Version:  13
     \\/     M anipulation  |
\*---------------------------------------------------------------------------*/
FoamFile
{
    format      ascii;
    class       surfaceScalarField;
    location    "39";
    object      phi_0;
}
// * * * * * * * * * * * * * * * * * * * * * * * * * * * * * * * * * * * * * //

dimensions      [0 3 -1 0 0 0 0];

internalField   nonuniform List<scalar> 
760
(
4.564692659e-06
-4.56438699e-06
-3.887272775e-05
4.343770692e-05
-0.0001314810816
9.260816668e-05
-0.0002573349286
0.0001258538938
-0.0004005157024
0.0001431801296
-0.0005476403356
0.0001471256792
-0.0006868418319
0.000139201166
-0.0008063879297
0.000119546069
-0.0008941234043
8.773637021e-05
-0.0009381692026
4.404590595e-05
-0.0009288358437
-9.334432217e-06
-0.0008613911567
-6.74444927e-05
-0.0007388759196
-0.0001225149347
-0.0005739926961
-0.0001648841677
-0.0003889193792
-0.000185073341
-0.0002122566535
-0.0001766614768
-7.309894849e-05
-0.0001391573055
6.833736325e-06
-7.993349362e-05
2.261497296e-05
-1.578175482e-05
2.261565828e-05
-4.727195857e-05
4.270730795e-05
-0.0002095707226
0.0002057364667
-0.0004734907251
0.0003565266473
-0.0008064257994
0.0004587907362
-0.001174089485
0.0005108411959
-0.001544920482
0.0005179579114
-0.001889423134
0.0004837058015
-0.00217870561
0.0004088294625
-0.002384386128
0.0002934165725
-0.00248063253
0.0001402924631
-0.002448207464
-4.176197765e-05
-0.002279587241
-0.0002360663841
-0.001983982732
-0.0004181170293
-0.0015903189
-0.000558545508
-0.001146461958
-0.0006289307844
-0.0007131636927
-0.0006099609929
-0.000352391781
-0.0004999279999
-0.0001114993441
-0.0003208237316
-5.918628659e-06
-0.0001213615775
1.669848216e-05
-0.0001118676115
0.000154575124
-0.0004055341759
0.0004994041742
-0.0008348570082
0.0007858482027
-0.001350729598
0.0009746629158
-0.00190618504
0.001066296273
-0.002457707039
0.00106948185
-0.002963988118
0.0009899883932
-0.003384720004
0.000829561908
-0.003681150307
0.0005898446454
-0.003818964598
0.0002781065054
-0.003773217579
-8.750823902e-05
-0.003534353419
-0.0004749299827
-0.003114064706
-0.0008384054973
-0.002549219588
-0.001123390724
-0.001901782114
-0.001276368
-0.001252521822
-0.001259220029
-0.0006871809322
-0.001065267418
-0.0002762778552
-0.0007317273135
-5.337932715e-05
-0.0003442573576
-3.667993494e-05
-0.0001733484783
0.0003279231366
-0.0005938494716
0.000919902739
-0.001179327629
0.001371324661
-0.001861762074
0.001657097061
-0.002583070826
0.001787605436
-0.003291545143
0.001777956149
-0.003938600877
0.00163704387
-0.004476981548
0.001367944525
-0.004861275438
0.0009741383391
-0.005050849492
0.0004676807173
-0.005014837272
-0.0001235194757
-0.004738465766
-0.0007512986052
-0.004229901056
-0.001346968138
-0.003526173681
-0.001827117914
-0.002695922469
-0.002106617853
-0.001835604452
-0.00211953509
-0.001055839792
-0.001845030664
-0.0004574848959
-0.001330081499
-0.0001035331351
-0.0006982064657
-0.000140213226
-0.0002280849222
0.0005560082281
-0.0007632475142
0.00145506628
-0.001490167558
0.002098243014
-0.002322477421
0.002489405633
-0.003192461916
0.002657590001
-0.004043006735
0.002628502795
-0.00482174107
0.002415779049
-0.005477829275
0.002024033408
-0.005961579356
0.001457887437
-0.006226584899
0.0007326891697
-0.006234108702
-0.00011599214
-0.005959369383
-0.001026035165
-0.005399817566
-0.00190651888
-0.004584310664
-0.002642624628
-0.003581045809
-0.003109880431
-0.002499423527
-0.003201154847
-0.001479338105
-0.002865116771
-0.0006635430023
-0.002145874488
-0.0001581982431
-0.001203552252
-0.0002984111621
-0.0002742491543
0.000830256057
-0.0009071418652
0.00208795675
-0.001755636646
0.002946735467
-0.002717798926
0.003451568183
-0.003718513881
0.003658304493
-0.004697886307
0.003607875905
-0.005602751811
0.003320646087
-0.006381541434
0.002802825802
-0.006982253119
0.002058600295
-0.007353027119
0.001103468812
-0.007445305465
-2.370848643e-05
-0.007219560274
-0.001251778947
-0.00665509342
-0.002470987016
-0.005763087519
-0.003534631105
-0.004601808547
-0.004271158078
-0.003287878762
-0.004515084924
-0.001993240897
-0.004159758142
-0.0009160876897
-0.003223026656
-0.0002249051961
-0.001894740392
-0.0005233158424
-0.0003099607729
0.00114021671
-0.001019344416
0.002797338441
-0.00196414437
0.003891533887
-0.003030718913
0.004518143876
-0.004139237088
0.004766823892
-0.005229625358
0.004698264658
-0.006250751015
0.004341773222
-0.007153153744
0.003705232662
-0.007884906784
0.002790355972
-0.008390061787
0.001608628479
-0.008609683895
0.0001959158546
-0.008486807602
-0.001374658506
-0.007976103428
-0.00298169594
-0.007060878118
-0.004449857638
-0.00577624768
-0.005555788788
-0.004233699871
-0.006057636385
-0.002633244336
-0.0057602197
-0.001240601579
-0.00461567059
-0.0003130927929
-0.002822251263
-0.0008364084808
-0.000333330066
0.001473546609
-0.001093815544
0.00355782348
-0.002103879058
0.004901596321
-0.003242240551
0.005656504401
-0.004427011693
0.005951596594
-0.005600384199
0.005871637389
-0.006716004908
0.005457394801
-0.007729659459
0.004718890376
-0.008592860716
0.003653559104
-0.009248791533
0.002264560581
-0.009630788925
0.0005779117974
-0.009664752603
-0.001340699092
-0.009277698422
-0.003368753861
-0.008415897261
-0.005311658956
-0.007075000603
-0.006896686324
-0.005340283186
-0.007792356782
-0.003423377511
-0.007677128108
-0.001661408755
-0.006377641283
-0.0004331063644
-0.004050549778
-0.00126951532
-0.0003431128926
0.001816658681
-0.001126131932
0.004340842559
-0.002165005655
0.005940469741
-0.00333438701
0.006825884559
-0.004552604434
0.007169815427
-0.005766262492
0.007085294452
-0.006936426006
0.00662755811
-0.008027591576
0.005810057162
-0.008999188934
0.004625158079
-0.009799038766
0.003064410286
-0.01035879982
0.00113766963
-0.01059267142
-0.001106828815
-0.01040220826
-0.003559215196
-0.00969179859
-0.006022067024
-0.008401516743
-0.008186969199
-0.006561719006
-0.009632156479
-0.004362219701
-0.009876627423
-0.002196557861
-0.008543304862
-0.0005958089824
-0.005651297331
-0.001865324755
-0.0003398118183
0.002156470017
-0.001116137256
0.005117167474
-0.002143763608
0.006968094683
-0.003295767297
0.007977885965
-0.004492508258
0.008366555499
-0.005686930396
0.008279713102
-0.006850036133
0.007790663133
-0.007958631765
0.00691865325
-0.008985265922
0.005651794846
-0.009889640824
0.003968788371
-0.01061104824
0.001859076707
-0.01106234887
-0.0006555277682
-0.01112914135
-0.00349242083
-0.01067694216
-0.006474268382
-0.009580178161
-0.009283738177
-0.007783792511
-0.01142854621
-0.005405627874
-0.01225479454
-0.002849987641
-0.01109894592
-0.0008119744134
-0.00768931559
-0.002677298923
-0.0003271610512
0.002483630761
-0.001071471359
0.005861476573
-0.002047827019
0.007944447437
-0.003128743647
0.009058798048
-0.004238393406
0.009476201995
-0.005338266718
0.009379582379
-0.006411895174
0.008864292781
-0.007451830553
0.007958590432
-0.008448803549
0.006648769278
-0.0093819707
0.004901958275
-0.01020924103
0.002686349582
-0.01085571024
-9.056998667e-06
-0.01120815011
-0.00313998221
-0.01110645553
-0.006575970188
-0.01036239509
-0.0100278048
-0.008813744561
-0.01297719989
-0.006448329783
-0.01462021293
-0.003599153318
-0.01394811969
-0.00109060044
-0.01019786727
-0.003767897332
-0.000314047134
0.002797676839
-0.001011719478
0.006559145622
-0.001902033597
0.008834757908
-0.002856520005
0.01001327874
-0.003806108899
0.01042578671
-0.00472442872
0.01029789942
-0.005610730024
0.009750597165
-0.006476363663
0.008824228069
-0.007334103154
0.007506510604
-0.008188472797
0.005756327047
-0.009025039904
0.003522916511
-0.009798547101
0.0007644507923
-0.01041293222
-0.00252559869
-0.01070983704
-0.006279067236
-0.01045870252
-0.01027893688
-0.009389524614
-0.0140463728
-0.007312051859
-0.01669768598
-0.004378579666
-0.01688159087
-0.001434921301
-0.01314152234
-0.005202820426
-0.0003172357593
0.003114911603
-0.0009731386488
0.007215044036
-0.001753341698
0.009614958405
-0.002527677271
0.01078761051
-0.003240302084
0.01113840835
-0.003883702504
0.01094129793
-0.004477471638
0.0103443683
-0.005054452655
0.009401210722
-0.005651313264
0.008103372649
-0.006300501233
0.006405516374
-0.007020970205
0.004243388301
-0.007805180657
0.001548662538
-0.008598452319
-0.001732329875
-0.009272371028
-0.005605148426
-0.00959344884
-0.009957859256
-0.009214138109
-0.01442568404
-0.007750269322
-0.01816155836
-0.005063900033
-0.01956796229
-0.001834364598
-0.01637106114
-0.007037188362
-0.0003658341728
0.003480745196
-0.001013981966
0.00786318764
-0.001673018666
0.01027399251
-0.002214059336
0.01132864866
-0.002608609431
0.01153295806
-0.002879996201
0.01121268393
-0.0030749512
0.01053932394
-0.00325022792
0.009576487532
-0.003465976952
0.008319120109
-0.003780968723
0.006720507944
-0.004246694813
0.004709117246
-0.004897413046
0.002199383687
-0.00573191196
-0.0008978304806
-0.006681634404
-0.00465542078
-0.007560146312
-0.009079348705
-0.00800461831
-0.01398121627
-0.007471867155
-0.01869431197
-0.005462764886
-0.02157706136
-0.002250387408
-0.01958343746
-0.009287573588
-0.0005080556292
0.003988800335
-0.001218133662
0.008573263056
-0.001749256162
0.01080511206
-0.001991181541
0.01157056949
-0.001971718013
0.01151349536
-0.001764267482
0.0110052348
-0.001451635026
0.01022669143
-0.001116446317
0.009241298804
-0.0008399164768
0.008042593934
-0.0007021443637
0.006582742218
-0.0007811893998
0.004788167401
-0.001148783757
0.002566978438
-0.001858844498
-0.000187772529
-0.00292052398
-0.003593739745
-0.00424142119
-0.007758452044
-0.005527045238
-0.01269559181
-0.006168272228
-0.01805308322
-0.005311316472
-0.02243401984
-0.002593757085
-0.02230099745
-0.0118813387
-0.000813422158
0.004802222003
-0.001681742046
0.009441582293
-0.002041737607
0.01116510823
-0.001862674768
0.01139150138
-0.001285685276
0.01093650305
-0.0004613467116
0.010180898
0.0004826422939
0.009282704893
0.001437996685
0.008285944293
0.002307305392
0.007173284966
0.002996657225
0.005893391326
0.00341057726
0.004374246898
0.003450004237
0.002527552129
0.003015075757
0.000247162309
0.002019917609
-0.002598577978
0.0004373507362
-0.00617588339
-0.001586947415
-0.01067129723
-0.003519692746
-0.01612034544
-0.004265404627
-0.02168831701
-0.002690895632
-0.0238754998
-0.01457223533
-0.001349342752
0.006151564613
-0.002420172938
0.01051241141
-0.002387552921
0.01113249162
-0.001498448926
0.01050239858
-0.0001088631246
0.0095469158
0.001530102553
0.008541932788
0.003249234247
0.007563573504
0.004925085045
0.00661009356
0.006456329024
0.005642042768
0.007747682952
0.004602040822
0.008698878151
0.003423052977
0.009197424122
0.002029008058
0.009114062707
0.000330529041
0.008305085435
-0.00178960898
0.006631388575
-0.004502182728
0.004043972821
-0.008083869729
0.0008388377443
-0.01291520155
-0.001887365656
-0.01896211252
-0.002257030725
-0.02350584013
-0.01682926662
-0.002135367377
0.008286932772
-0.002921981209
0.01129902214
-0.001687541406
0.009898056322
0.0005337505456
0.008281111571
0.003113657415
0.006967011335
0.005761625234
0.005893963687
0.008324537351
0.005000658321
0.01070567554
0.004228952806
0.01283059408
0.003517125462
0.01462598343
0.002806654536
0.01600607579
0.002042958619
0.01686397013
0.001171113241
0.01706270789
0.0001317998955
0.01643055962
-0.00115746713
0.0147521321
-0.002823756844
0.01179301645
-0.005124755429
0.007462246405
-0.008584437508
0.002446933969
-0.0139467971
-0.000884092545
-0.02017481322
-0.01771336025
-0.002487580748
0.01077451548
-1.234050354e-05
0.00882377965
0.004177377838
0.005708335953
0.00832669794
0.004131793539
0.01212055311
0.003173158397
0.01552783826
0.002486678785
0.01854932261
0.001979173403
0.02119046191
0.001587812447
0.02344770278
0.001259885175
0.02529818097
0.0009561794308
0.02669480798
0.000646335302
0.02756014034
0.0003057842819
0.02778135066
-8.940709925e-05
0.02719885864
-0.0005749728749
0.02557552004
-0.001200416265
0.02254983613
-0.002099070353
0.01761989593
-0.003654497654
0.01040181089
-0.006728706834
0.002475282722
-0.01224829071
-0.01523807307
0.0107745176
0.01959830005
0.02530663561
0.02943842766
0.03261158573
0.03509826397
0.03707743573
0.03866524827
0.03992513534
0.04088131365
0.04152764704
0.04183343366
0.04174402468
0.04116905363
0.03996864106
0.03786957266
0.03421507488
0.02748636547
0.0152380732
)
;

boundaryField
{
    movingWall
    {
        type            calculated;
        value           uniform 0;
    }
    fixedWalls
    {
        type            calculated;
        value           uniform 0;
    }
    frontAndBack
    {
        type            empty;
    }
}


// ************************************************************************* //
