/*--------------------------------*- C++ -*----------------------------------*\
  =========                 |
  \\      /  F ield         | OpenFOAM: The Open Source CFD Toolbox
   \\    /   O peration     | Website:  https://openfoam.org
    \\  /    A nd           | Version:  13
     \\/     M anipulation  |
\*---------------------------------------------------------------------------*/
FoamFile
{
    format      ascii;
    class       volVectorField;
    location    "39";
    object      U;
}
// * * * * * * * * * * * * * * * * * * * * * * * * * * * * * * * * * * * * * //

dimensions      [0 1 -1 0 0 0 0];

internalField   nonuniform List<vector> 
400
(
(0.0001821507829 -0.0001860270526 0)
(-0.0001386010095 3.053560481e-05 0)
(-0.001532958027 0.0002684937479 0)
(-0.003782362862 0.0004194076228 0)
(-0.006539288964 0.0004991554777 0)
(-0.009502674061 0.0005295043232 0)
(-0.01242274379 0.0005202235597 0)
(-0.0150661718 0.0004702646912 0)
(-0.01719271475 0.0003728720729 0)
(-0.01855593368 0.0002226607101 0)
(-0.01893047858 2.288034202e-05 0)
(-0.01816141368 -0.0002090709569 0)
(-0.01622356202 -0.0004392650899 0)
(-0.01327233704 -0.0006211799715 0)
(-0.009663884642 -0.0007062260389 0)
(-0.005924329351 -0.0006594800018 0)
(-0.00265951402 -0.0004747448885 0)
(-0.0004108063969 -0.0001825172656 0)
(0.0005374804951 0.0001362729534 0)
(0.0003088791665 0.0003019182952 0)
(-4.760560472e-05 0.0001375258585 0)
(-0.002075942321 0.001929998258 0)
(-0.006422467171 0.003754245701 0)
(-0.01256168332 0.005015602192 0)
(-0.01973653244 0.005679465396 0)
(-0.02727681296 0.005822195459 0)
(-0.03457820644 0.005494387321 0)
(-0.04105943836 0.004702514072 0)
(-0.04614155148 0.003436852541 0)
(-0.0492670451 0.001716781852 0)
(-0.04996370308 -0.0003650945959 0)
(-0.04794177931 -0.002614630707 0)
(-0.04320211836 -0.004735191199 0)
(-0.03612294638 -0.006364193543 0)
(-0.02748800993 -0.007149254321 0)
(-0.01842229013 -0.006853315391 0)
(-0.01021418769 -0.005461033164 0)
(-0.004032462195 -0.003253842229 0)
(-0.0005786047284 -0.0008627527577 0)
(0.0002206845657 0.0005866510177 0)
(-0.0003530341651 0.001714924516 0)
(-0.004477264784 0.006454617559 0)
(-0.01184656485 0.01065447826 0)
(-0.02155739758 0.01349442529 0)
(-0.03251451878 0.01492554915 0)
(-0.04380700421 0.01507528712 0)
(-0.05459746332 0.01403294645 0)
(-0.0640706531 0.01182097748 0)
(-0.07142552552 0.008452799324 0)
(-0.07591114347 0.004022990281 0)
(-0.07690876573 -0.001208370781 0)
(-0.07404713529 -0.006765651642 0)
(-0.06732775383 -0.0119638286 0)
(-0.05722965527 -0.01598720709 0)
(-0.04475557482 -0.01804722137 0)
(-0.03137597032 -0.017603916 0)
(-0.01883040461 -0.0146013643 0)
(-0.00878414509 -0.0096409963 0)
(-0.002418393349 -0.004055099036 0)
(3.438944162e-05 2.087962462e-05 0)
(-0.0006298060566 0.004586405776 0)
(-0.006796022772 0.01364830457 0)
(-0.017065198 0.0208822035 0)
(-0.03008751769 0.02558183788 0)
(-0.04442739108 0.02781195278 0)
(-0.0589933083 0.02779122648 0)
(-0.07280200658 0.0256590174 0)
(-0.08489722194 0.02146178049 0)
(-0.09434105907 0.01525149842 0)
(-0.1002522754 0.007223830287 0)
(-0.1018892875 -0.00215744365 0)
(-0.098767388 -0.01208751538 0)
(-0.09079473422 -0.02142686096 0)
(-0.07840596115 -0.0288131212 0)
(-0.06265880317 -0.03289562126 0)
(-0.04523793677 -0.03268720091 0)
(-0.02829204464 -0.02797064267 0)
(-0.01406754951 -0.01962606569 0)
(-0.004428458963 -0.00974211096 0)
(-0.0001258700105 -0.001519383641 0)
(-0.0008682638388 0.008635946698 0)
(-0.008870663561 0.02328420089 0)
(-0.02177310587 0.03410800664 0)
(-0.03778724935 0.04084000424 0)
(-0.05515845674 0.04383178457 0)
(-0.07265966564 0.04346917646 0)
(-0.08922809233 0.03996855608 0)
(-0.1038391676 0.03340644217 0)
(-0.1154799003 0.02386989535 0)
(-0.1231718731 0.01164461749 0)
(-0.1260390263 -0.00261911085 0)
(-0.1234155541 -0.01780176394 0)
(-0.1149926146 -0.03230050626 0)
(-0.1009970291 -0.04414397533 0)
(-0.08237434933 -0.0512771843 0)
(-0.06090965976 -0.0520445305 0)
(-0.03916712406 -0.04581992859 0)
(-0.02014300425 -0.03359143049 0)
(-0.006675141918 -0.01820426036 0)
(-0.0002721372674 -0.004091813304 0)
(-0.001064823289 0.01370357436 0)
(-0.01062079396 0.0350618344 0)
(-0.02577991518 0.04998122151 0)
(-0.04437485576 0.05890550339 0)
(-0.06438415766 0.06264643832 0)
(-0.0844931397 0.06184857266 0)
(-0.1036173741 0.05684247225 0)
(-0.1207258428 0.04773722223 0)
(-0.1347824536 0.0346311995 0)
(-0.1447378634 0.01785225925 0)
(-0.1495671311 -0.001829762216 0)
(-0.1483570465 -0.02304962899 0)
(-0.140458458 -0.04378227261 0)
(-0.1257155922 -0.06141054443 0)
(-0.104760409 -0.07301194294 0)
(-0.07930620587 -0.07595105344 0)
(-0.05228090671 -0.06878681317 0)
(-0.02759459645 -0.05227709678 0)
(-0.009439923025 -0.02996857477 0)
(-0.0004472559568 -0.007846544108 0)
(-0.001211987789 0.01959783949 0)
(-0.01197250362 0.04859965716 0)
(-0.02890916946 0.0680561824 0)
(-0.04956118941 0.07933818282 0)
(-0.07171029402 0.0838714115 0)
(-0.09400484366 0.08265208494 0)
(-0.1153929901 0.07616699754 0)
(-0.1348960741 0.06455778053 0)
(-0.15151001 0.04789541761 0)
(-0.1641543289 0.02647350008 0)
(-0.1716662528 0.001072763452 0)
(-0.172855331 -0.02681947445 0)
(-0.1666429632 -0.05485510951 0)
(-0.1523252565 -0.07978950436 0)
(-0.1299795083 -0.09769131325 0)
(-0.1009681626 -0.1045759166 0)
(-0.06837731566 -0.09760285212 0)
(-0.0370846751 -0.07669952485 0)
(-0.01308411524 -0.04588587708 0)
(-0.0007026389373 -0.01311287617 0)
(-0.001301157704 0.02608895342 0)
(-0.01285454965 0.06342907985 0)
(-0.0309892936 0.0877704719 0)
(-0.05304374557 0.1015643468 0)
(-0.07667648585 0.1069770343 0)
(-0.1005467829 0.1054450073 0)
(-0.1236857827 0.09765767748 0)
(-0.1452265812 0.08379230113 0)
(-0.1642633331 0.06385016631 0)
(-0.1797524628 0.03800077602 0)
(-0.1904546818 0.006900095649 0)
(-0.194937251 -0.02801256534 0)
(-0.1916734873 -0.06423816762 0)
(-0.1792983927 -0.09802119695 0)
(-0.157083572 -0.1243768018 0)
(-0.1256486058 -0.1376275942 0)
(-0.08780300938 -0.1327985423 0)
(-0.04918963236 -0.1080113908 0)
(-0.01800294044 -0.06712775038 0)
(-0.00110146039 -0.02042433264 0)
(-0.001327631332 0.03291264057 0)
(-0.01322031231 0.07900305999 0)
(-0.0318898656 0.1084444514 0)
(-0.05455784139 0.124851272 0)
(-0.07882554406 0.1312281662 0)
(-0.1034037232 0.1295362046 0)
(-0.1274517974 0.1207215152 0)
(-0.1502746536 0.1050120898 0)
(-0.1711437425 0.08230924052 0)
(-0.1891527856 0.05257634221 0)
(-0.2031047281 0.01620508587 0)
(-0.2114461347 -0.02561160839 0)
(-0.212290926 -0.0704715868 0)
(-0.2036040991 -0.1143607086 0)
(-0.1836595039 -0.1513809922 0)
(-0.1518863793 -0.173982176 0)
(-0.1101395855 -0.1742911103 0)
(-0.064210038 -0.1472214465 0)
(-0.02459591862 -0.09510814002 0)
(-0.001726816866 -0.03053198124 0)
(-0.001297999271 0.03979269721 0)
(-0.01308629329 0.09472893427 0)
(-0.03158915996 0.1293015678 0)
(-0.05397219931 0.1483021488 0)
(-0.07783044776 0.1556486334 0)
(-0.1019604327 0.1539104641 0)
(-0.1256913711 0.14435622 0)
(-0.1485588296 0.1273001247 0)
(-0.1700974451 0.1025407984 0)
(-0.1896615813 0.06978479747 0)
(-0.2062633644 0.02904561538 0)
(-0.2184319849 -0.01892905262 0)
(-0.2241343617 -0.07213371459 0)
(-0.2208127777 -0.1266918051 0)
(-0.205704588 -0.1761878864 0)
(-0.1766728948 -0.2113496628 0)
(-0.1337928851 -0.2208592173 0)
(-0.08189359748 -0.1947209274 0)
(-0.03321141801 -0.1312933548 0)
(-0.002692541313 -0.04441202132 0)
(-0.001240049348 0.04648931402 0)
(-0.01258376768 0.1100375186 0)
(-0.03026321653 0.1495216327 0)
(-0.05141258561 0.1708834971 0)
(-0.07365696778 0.1790256414 0)
(-0.09591779308 0.1772147809 0)
(-0.1177400318 0.1671193505 0)
(-0.1389472069 0.1491975535 0)
(-0.1594183904 0.1231784923 0)
(-0.178891609 0.08851032904 0)
(-0.196771184 0.04477048494 0)
(-0.2119191836 -0.007892265753 0)
(-0.2224723128 -0.06819002518 0)
(-0.2256740081 -0.1328603121 0)
(-0.2179304445 -0.1956372617 0)
(-0.1954084956 -0.2461487256 0)
(-0.1556560648 -0.2696384238 0)
(-0.1010589976 -0.2496202678 0)
(-0.04401918496 -0.1768369054 0)
(-0.004153135557 -0.06325476497 0)
(-0.001216206019 0.05288117218 0)
(-0.01202316254 0.1244961843 0)
(-0.02838573029 0.1683311151 0)
(-0.04738825732 0.1914880745 0)
(-0.06672012769 0.199960302 0)
(-0.08549717425 0.1978115038 0)
(-0.1035483761 0.1871900461 0)
(-0.121044717 0.1687670608 0)
(-0.138273726 0.1422644177 0)
(-0.1554481194 0.1069211643 0)
(-0.1725118964 0.06189188127 0)
(-0.1889150441 0.006656635741 0)
(-0.2033001672 -0.05842866444 0)
(-0.2131663249 -0.1312255297 0)
(-0.2146002482 -0.2064616511 0)
(-0.2023479182 -0.2737877693 0)
(-0.1710647573 -0.3158852584 0)
(-0.1192116391 -0.3090157372 0)
(-0.05676386763 -0.2319680353 0)
(-0.00630626126 -0.08840460372 0)
(-0.001345087188 0.0590942123 0)
(-0.01197786573 0.1379673117 0)
(-0.02682863992 0.1851178058 0)
(-0.04288607447 0.2090147484 0)
(-0.05797163694 0.2169459641 0)
(-0.07153902563 0.2138827446 0)
(-0.08381854389 0.202512529 0)
(-0.09539907185 0.1837717665 0)
(-0.1070164972 0.1574413911 0)
(-0.1193954572 0.1226338495 0)
(-0.1330883442 0.07816516411 0)
(-0.1482638635 0.02289510405 0)
(-0.1643791234 -0.04381187955 0)
(-0.1797101016 -0.1213043069 0)
(-0.190733917 -0.2061334205 0)
(-0.1915491058 -0.2894580546 0)
(-0.1742284047 -0.3532867665 0)
(-0.132351851 -0.3674646302 0)
(-0.07038063703 -0.2951017699 0)
(-0.009373768926 -0.1211779521 0)
(-0.001842128306 0.06569998166 0)
(-0.01340294226 0.1508041974 0)
(-0.02694657771 0.1995316992 0)
(-0.03937228273 0.2224164999 0)
(-0.04881769378 0.228423776 0)
(-0.05535576495 0.2235322064 0)
(-0.05981171672 0.2109612153 0)
(-0.06328029676 0.1919048244 0)
(-0.06695902098 0.1662340023 0)
(-0.0720562682 0.1330148643 0)
(-0.07969776956 0.09085430604 0)
(-0.09078224205 0.03815324954 0)
(-0.105718717 -0.02659923512 0)
(-0.1239557957 -0.104269423 0)
(-0.1431618059 -0.1937844345 0)
(-0.1579793288 -0.2893204322 0)
(-0.1590457114 -0.37494612 0)
(-0.1351275206 -0.4170433198 0)
(-0.0825153762 -0.3617984012 0)
(-0.01350965027 -0.1623993634 0)
(-0.003079610837 0.07400841701 0)
(-0.0177830651 0.164051291 0)
(-0.03055947405 0.2114870815 0)
(-0.03852413618 0.230622518 0)
(-0.04061826491 0.2327252903 0)
(-0.03804171644 0.2247906226 0)
(-0.03249599931 0.2104208369 0)
(-0.02567994602 0.1909475266 0)
(-0.01923856001 0.166287425 0)
(-0.01478241513 0.135498929 0)
(-0.01389267351 0.09710640556 0)
(-0.01807942217 0.04927590639 0)
(-0.02864590455 -0.0100602119 0)
(-0.04635717342 -0.08297025459 0)
(-0.07067557315 -0.1707604152 0)
(-0.09812148953 -0.2716619324 0)
(-0.1198254632 -0.374834266 0)
(-0.1211710574 -0.4482475334 0)
(-0.08901930424 -0.4241030612 0)
(-0.01849055172 -0.2115969319 0)
(-0.00557477509 0.0865644717 0)
(-0.02711998859 0.1795370805 0)
(-0.03939725655 0.2208016121 0)
(-0.04100232051 0.2320770457 0)
(-0.03292319847 0.2276909916 0)
(-0.01833807096 0.2153495547 0)
(-0.0001529404021 0.1986284389 0)
(0.01927040936 0.1787152471 0)
(0.03790489295 0.1554303128 0)
(0.05386847422 0.1278027126 0)
(0.0652948741 0.09436695575 0)
(0.0702610291 0.05327898295 0)
(0.06678051281 0.002316184716 0)
(0.05292874765 -0.0611923201 0)
(0.02730743482 -0.140291907 0)
(-0.009464411574 -0.2373366446 0)
(-0.05132514459 -0.3490256082 0)
(-0.08319381764 -0.4514470722 0)
(-0.08345963364 -0.4710083205 0)
(-0.02311429258 -0.266639899 0)
(-0.00989280902 0.1087191526 0)
(-0.04297003386 0.1995813387 0)
(-0.05218793985 0.2257353468 0)
(-0.04172280442 0.2232704859 0)
(-0.01777312346 0.2095528793 0)
(0.01339407855 0.1918007242 0)
(0.04760371887 0.1727047868 0)
(0.08202463056 0.1528265886 0)
(0.1144919416 0.1316539249 0)
(0.1431023934 0.1081195245 0)
(0.1659516428 0.08082996177 0)
(0.1809611485 0.04811818242 0)
(0.1857582022 0.007973979878 0)
(0.1776366147 -0.04220722036 0)
(0.1536473435 -0.1061090781 0)
(0.111415914 -0.1890259996 0)
(0.05225272061 -0.2959282665 0)
(-0.01256496231 -0.4176823362 0)
(-0.05677796272 -0.4888908697 0)
(-0.02465826374 -0.3239845698 0)
(-0.01780724046 0.1516855887 0)
(-0.06128962593 0.2236414265 0)
(-0.05225107337 0.2176697274 0)
(-0.0143295572 0.1949474318 0)
(0.03545853587 0.1710714305 0)
(0.08866661099 0.1490897466 0)
(0.1413103149 0.1293972547 0)
(0.1911038891 0.1114001395 0)
(0.2364511362 0.0940578709 0)
(0.2759507796 0.07618757655 0)
(0.3080704574 0.05655299691 0)
(0.3309401817 0.03382767753 0)
(0.3421800416 0.006492460447 0)
(0.3387927945 -0.02743748777 0)
(0.3169687949 -0.07112200414 0)
(0.272121679 -0.1304967148 0)
(0.2000537679 -0.2164663051 0)
(0.1029368437 -0.3383377032 0)
(0.004328630097 -0.4567689992 0)
(-0.01596840765 -0.3692999961 0)
(-0.02421716416 0.2082799083 0)
(-0.03790442416 0.2303716594 0)
(0.03728514258 0.1765413048 0)
(0.1250684261 0.1368580684 0)
(0.2058396753 0.1090613021 0)
(0.2780166713 0.08821606943 0)
(0.3422660061 0.07212164704 0)
(0.3988759148 0.05918805852 0)
(0.4478950196 0.0480329865 0)
(0.4890918005 0.03752415569 0)
(0.5217956204 0.02671801007 0)
(0.5447709028 0.01476549479 0)
(0.5561330398 0.0007924272808 0)
(0.5532275515 -0.01627376051 0)
(0.5322373286 -0.03827134051 0)
(0.487694615 -0.06913932792 0)
(0.4111106055 -0.1190959247 0)
(0.2908646032 -0.2093520443 0)
(0.1331183852 -0.3382894484 0)
(0.03876642158 -0.3403603419 0)
(0.2418894358 0.1091368423 0)
(0.3134672084 0.09712281441 0)
(0.4443377412 0.05696976757 0)
(0.5496468189 0.03510631953 0)
(0.6240737569 0.02373385593 0)
(0.6796102099 0.01670306672 0)
(0.723479259 0.01197407057 0)
(0.7587799995 0.008690183907 0)
(0.7870639013 0.006254075409 0)
(0.8091295312 0.00423351776 0)
(0.8251551722 0.002333432376 0)
(0.8347696305 0.0003461674272 0)
(0.8371092763 -0.001904807501 0)
(0.8307527265 -0.004587234998 0)
(0.8133956579 -0.008026721553 0)
(0.7811434241 -0.01288601417 0)
(0.7257016396 -0.02123333344 0)
(0.6298694028 -0.03809647807 0)
(0.4592693363 -0.08555331183 0)
(0.304893136 -0.1256981541 0)
)
;

boundaryField
{
    movingWall
    {
        type            fixedValue;
        value           uniform (1 0 0);
    }
    fixedWalls
    {
        type            fixedValue;
        value           uniform (0 0 0);
    }
    frontAndBack
    {
        type            empty;
    }
}


// ************************************************************************* //
