/*--------------------------------*- C++ -*----------------------------------*\
  =========                 |
  \\      /  F ield         | OpenFOAM: The Open Source CFD Toolbox
   \\    /   O peration     | Website:  https://openfoam.org
    \\  /    A nd           | Version:  13
     \\/     M anipulation  |
\*---------------------------------------------------------------------------*/
FoamFile
{
    format      ascii;
    class       volVectorField;
    location    "39";
    object      U;
}
// * * * * * * * * * * * * * * * * * * * * * * * * * * * * * * * * * * * * * //

dimensions      [0 1 -1 0 0 0 0];

internalField   nonuniform List<vector> 
400
(
(1.100180605e-05 -3.783477173e-05 0)
(-0.0006660996729 0.0004130421951 -1.551028377e-23)
(-0.002185375655 0.000920393532 0)
(-0.004047832991 0.001312780747 0)
(-0.005971868139 0.001535065765 6.845306558e-25)
(-0.007762782998 0.00156984806 4.151556288e-24)
(-0.009284544856 0.001423563865 -7.373208357e-24)
(-0.01043594086 0.001119723384 7.531087988e-24)
(-0.01113681366 0.0006960824657 -2.095532156e-25)
(-0.01132711074 0.0002030774309 -3.994808516e-24)
(-0.01097177198 -0.0003002335724 5.803836573e-24)
(-0.01007232743 -0.0007475161762 -5.929738558e-23)
(-0.00867987981 -0.001075562349 -6.552834707e-23)
(-0.006902852962 -0.001233044064 -7.784352853e-23)
(-0.004910738158 -0.001192638445 4.573626131e-24)
(-0.002927231744 -0.0009619206635 -4.13799681e-24)
(-0.001205298381 -0.0005912120264 -1.99881078e-22)
(-1.906712001e-05 -0.0001698830811 0)
(0.0005181552794 0.0001720857401 1.510061235e-25)
(0.0002227521912 0.0003059783839 -2.559162592e-24)
(-0.0002633647641 0.0008289658134 1.383198068e-25)
(-0.002703307057 0.003383840166 1.560820899e-23)
(-0.006907277402 0.005604499942 1.554968867e-25)
(-0.01195231943 0.007008206235 -8.494576679e-25)
(-0.01713504355 0.007553774999 1.162004903e-24)
(-0.02197535324 0.007294199264 1.306778067e-23)
(-0.02611075933 0.00632189437 1.389905953e-24)
(-0.02926564533 0.004754193579 -7.282779477e-24)
(-0.03122672774 0.002737152254 1.015296258e-23)
(-0.03184200727 0.0004524062942 4.510174595e-24)
(-0.03102761195 -0.001884144126 -6.319128115e-24)
(-0.02879316427 -0.004023028684 2.961874585e-24)
(-0.02527138236 -0.005708353498 3.895598558e-23)
(-0.02073194846 -0.006707408698 -1.954806438e-24)
(-0.01558962656 -0.006854140021 3.754542858e-24)
(-0.01038513395 -0.006097465226 -9.741083644e-23)
(-0.005730271105 -0.004546188305 9.637922114e-23)
(-0.002233365001 -0.002507421006 -3.961791339e-25)
(-0.0001817743405 -0.0005023739361 4.061709183e-25)
(8.343569534e-05 0.0006099239842 0)
(-0.0004188236779 0.002935078289 -2.910661732e-25)
(-0.004647875508 0.008804013451 1.702421526e-23)
(-0.01137196072 0.01324042224 -8.280717527e-24)
(-0.01932729058 0.01579203929 -2.075159358e-25)
(-0.02747411554 0.01652999854 2.038627079e-25)
(-0.03511778558 0.01564441508 6.876431884e-27)
(-0.04171344442 0.01335997474 -1.222306368e-24)
(-0.04683571276 0.009919770349 -4.552690683e-25)
(-0.05014988459 0.00560243316 -1.063116559e-23)
(-0.05141231458 0.0007444210411 0)
(-0.05047792854 -0.0042417796 0)
(-0.04733705935 -0.008887185787 2.671085245e-23)
(-0.04215927658 -0.01268176795 2.813104629e-23)
(-0.03531437285 -0.01513605039 -1.646205355e-24)
(-0.02738996208 -0.01586189479 4.84597988e-23)
(-0.01917005847 -0.0146733418 9.419381824e-23)
(-0.01156090617 -0.0116936049 3.975699877e-23)
(-0.005465409891 -0.007450744933 4.142347551e-25)
(-0.001451098242 -0.002936045907 1.073397658e-25)
(-9.072680078e-05 0.0002258749218 0)
(-0.0005024631697 0.006045349131 -4.249120118e-23)
(-0.006402739961 0.01637075315 -1.692646209e-23)
(-0.01553502391 0.02355933281 8.207578285e-24)
(-0.02627911921 0.02744162316 0)
(-0.03728746507 0.028321019 0)
(-0.04769037099 0.02658772295 0)
(-0.05679662526 0.02263120135 -4.471850148e-26)
(-0.06405383442 0.01683609132 -2.135953995e-24)
(-0.0690108087 0.009622182775 0)
(-0.07130827244 0.001491049906 1.63561486e-24)
(-0.07070852928 -0.006936502945 2.802849263e-25)
(-0.06713038904 -0.01493018657 -2.810697172e-25)
(-0.06069905234 -0.02166727914 0)
(-0.05180750324 -0.02631605501 4.133425687e-23)
(-0.04114991586 -0.02816070652 -4.681688417e-23)
(-0.02971970155 -0.02677372073 -2.762005165e-23)
(-0.01873716542 -0.02221530437 -3.960846687e-23)
(-0.009488026485 -0.01521922203 7.795706331e-25)
(-0.002976878861 -0.007298195925 9.790104099e-23)
(-0.0002318794569 -0.0008661692612 0)
(-0.000531613122 0.0100950149 4.269783249e-23)
(-0.007983592394 0.02595219241 4.784799081e-25)
(-0.01939687343 0.03642882409 -4.675515967e-25)
(-0.03282382219 0.04185520262 0)
(-0.04664688657 0.04289484813 7.782450603e-25)
(-0.05985229204 0.04020073688 -7.674544068e-25)
(-0.07163290801 0.03434741408 3.672159079e-23)
(-0.08132750571 0.02585663909 1.848060211e-23)
(-0.08836600316 0.01527298255 6.238482045e-24)
(-0.09225468717 0.003246147117 -1.637520377e-24)
(-0.09260378949 -0.009407831096 0)
(-0.08917554732 -0.02167477757 4.370875224e-25)
(-0.08195978625 -0.03236744686 1.009108681e-23)
(-0.07126885023 -0.0402124971 -4.349467945e-23)
(-0.05782018587 -0.04402045906 1.932984214e-24)
(-0.04278582821 -0.04294828979 4.217452626e-23)
(-0.02775450176 -0.0368334664 -3.841978412e-25)
(-0.01455062151 -0.02652720823 0)
(-0.004859461471 -0.01408454487 5.436547652e-23)
(-0.0003641481818 -0.002846953767 -2.565047833e-22)
(-0.0005272211817 0.0149992755 9.841167956e-23)
(-0.009377924759 0.0373902189 -4.907558314e-25)
(-0.02288182604 0.05170222447 0)
(-0.03883043226 0.05894182503 0)
(-0.05538656344 0.06025574015 -8.731939263e-23)
(-0.07142876121 0.05661900526 -8.498910112e-23)
(-0.08606653493 0.04880168355 -4.067400488e-23)
(-0.09855085251 0.03743980244 -1.504305232e-23)
(-0.1081945229 0.0231598385 -5.36856373e-24)
(-0.1143444639 0.006709679703 -8.174833744e-24)
(-0.1164046113 -0.01093291953 6.600926492e-24)
(-0.1138937307 -0.02848944689 8.826253223e-24)
(-0.1065486898 -0.04437045767 -1.892311399e-23)
(-0.09446803428 -0.05675333177 4.605202721e-24)
(-0.0782685649 -0.06378298034 0)
(-0.05922895168 -0.06393494817 -1.573005096e-23)
(-0.03933981701 -0.05653815784 -2.424642764e-26)
(-0.02114188665 -0.04235808802 0)
(-0.007318702099 -0.02398229288 -1.520621339e-22)
(-0.0005216164533 -0.00592554477 6.056211842e-22)
(-0.0004990822688 0.02064574307 -9.774122675e-23)
(-0.01052950918 0.05045437612 2.831947826e-22)
(-0.02582957282 0.06912510969 1.526846504e-22)
(-0.04402138005 0.07849257116 3.619236782e-24)
(-0.06310738723 0.08029475644 -7.319381311e-23)
(-0.08190404486 0.07588042232 9.043355114e-23)
(-0.09947762952 0.06621690144 -3.590160545e-24)
(-0.1150227294 0.0520169468 -1.729149108e-24)
(-0.1277519088 0.03392358301 2.52413099e-24)
(-0.1368472501 0.01270233212 7.38247743e-24)
(-0.1414710414 -0.010587821 -6.500687891e-24)
(-0.1408248073 -0.03446023965 -9.787631282e-24)
(-0.134274587 -0.05692771155 -3.261759098e-23)
(-0.121545016 -0.07553315546 -3.66111747e-23)
(-0.1029672599 -0.08754259815 5.645186675e-25)
(-0.07976369507 -0.09039208911 0)
(-0.05426682221 -0.08244513085 0)
(-0.02987160792 -0.06397736393 -2.906020197e-24)
(-0.01066285094 -0.03798794487 2.970468452e-24)
(-0.0007350936953 -0.01050089429 1.027872546e-22)
(-0.0004479164268 0.02687250823 0)
(-0.01134923154 0.0648075682 2.001979562e-22)
(-0.02801599514 0.08829616317 8.962030636e-23)
(-0.04799857049 0.1001234846 0)
(-0.06920601564 0.1027076458 1.569870296e-22)
(-0.09044372644 0.0978157781 0)
(-0.1107831617 0.0866110241 -1.42838085e-22)
(-0.1294093693 0.06983949943 6.515514186e-24)
(-0.1454771559 0.04808232001 0)
(-0.158035173 0.022017556 0)
(-0.1660133364 -0.007334437327 -1.374404233e-24)
(-0.1682671461 -0.03838839294 -9.316650784e-25)
(-0.1637064605 -0.06883975249 1.491964892e-22)
(-0.1515208682 -0.09558275008 -4.704661299e-23)
(-0.1315134492 -0.1148298574 -2.560909188e-24)
(-0.104559603 -0.1225703325 1.534672777e-24)
(-0.07309349584 -0.1155517888 -1.558881112e-24)
(-0.04135021323 -0.09283114992 0)
(-0.0152523022 -0.05740767315 3.203791084e-24)
(-0.001044309089 -0.01714714385 -1.012908832e-21)
(-0.0003744663714 0.03346304156 0)
(-0.01175005996 0.07998917905 -1.128271153e-22)
(-0.02920707776 0.1086390836 -6.191119519e-22)
(-0.05031744767 0.1232233875 -3.75529247e-22)
(-0.07296317082 0.1269096923 0)
(-0.09598959749 0.1219255545 4.119442604e-22)
(-0.1185273434 0.109634857 1.26091835e-22)
(-0.139814637 0.090782454 -5.581814526e-24)
(-0.1590221499 0.06581392953 5.554187543e-24)
(-0.1751460948 0.03520881142 0)
(-0.1869559922 -0.0001967443271 2.912126226e-23)
(-0.193017258 -0.03889753842 4.695827088e-24)
(-0.1917809843 -0.0784388785 -1.076802766e-22)
(-0.1817874371 -0.1151865295 8.004130697e-23)
(-0.1620570379 -0.1442599371 -2.419732006e-22)
(-0.1327061956 -0.1598548533 0)
(-0.09577887837 -0.1563112797 0)
(-0.05601632867 -0.1302981013 0)
(-0.0214785906 -0.08381134675 0)
(-0.001500384544 -0.02665516166 5.572089729e-22)
(-0.0002873899964 0.0401607736 0)
(-0.01169359592 0.0954361063 -3.493002664e-22)
(-0.02924438191 0.1294073511 8.932772046e-22)
(-0.05060947103 0.1469299041 3.617165227e-22)
(-0.07370082377 0.151974855 0)
(-0.09745150795 0.1472757855 -3.862541307e-22)
(-0.1211069802 0.1344191868 -3.174420764e-23)
(-0.1440324753 0.1141393267 3.333096725e-22)
(-0.1655143206 0.08670006404 1.769470915e-22)
(-0.1846248491 0.05229123578 -4.060145408e-23)
(-0.2001325776 0.01141716536 1.656820169e-23)
(-0.2104622401 -0.03471423583 -8.265237877e-24)
(-0.2137208481 -0.0837656286 3.371854449e-22)
(-0.207821545 -0.1318756258 0)
(-0.1908238489 -0.1732756036 2.420901025e-22)
(-0.1616335696 -0.2002593288 5.774731408e-24)
(-0.1211662657 -0.2040121606 -5.860849728e-24)
(-0.0738498958 -0.177211987 1.548432941e-22)
(-0.02971786727 -0.118864227 -5.435414039e-24)
(-0.002179545011 -0.04005398561 0)
(-0.0002117200906 0.04671639632 0)
(-0.01125001101 0.1105498036 0)
(-0.02815624446 0.1497354882 -5.022744623e-22)
(-0.04874479246 0.170151747 -1.880994184e-23)
(-0.07100086521 0.1766257018 2.038374182e-23)
(-0.09399451342 0.17245264 -2.014306733e-23)
(-0.1171434285 0.1594870902 -2.316878371e-23)
(-0.1400179493 0.1384805027 -3.029816019e-22)
(-0.1621328884 0.1095160693 6.698609694e-23)
(-0.1827959032 0.07245187067 4.513170281e-23)
(-0.200983555 0.02734929231 -4.577714911e-23)
(-0.2152270253 -0.02508697141 0)
(-0.2235562196 -0.0829835056 -7.839668314e-23)
(-0.2234632176 -0.1427257238 0)
(-0.2120679409 -0.1981820777 -3.739556719e-22)
(-0.1867434524 -0.2400773586 5.244942113e-22)
(-0.146443828 -0.2560773304 0)
(-0.09394567543 -0.233120941 -1.493979498e-22)
(-0.04022000891 -0.1639613594 1.937535989e-22)
(-0.00320110011 -0.05861062914 -3.411515458e-22)
(-0.0002015411199 0.05297584749 0)
(-0.01067261944 0.1248172302 9.182856211e-22)
(-0.02628446784 0.1687424462 -2.440681786e-23)
(-0.04501107925 0.1916455008 9.193329552e-22)
(-0.06494597605 0.1992920926 -2.512083332e-23)
(-0.08536628647 0.1956104206 2.838840169e-23)
(-0.1059305664 0.1827886756 -2.812926266e-23)
(-0.126492421 0.1616583452 -1.660915477e-23)
(-0.1468996876 0.1321762276 -5.260221606e-22)
(-0.1668458191 0.0938964672 -8.906616179e-24)
(-0.185730306 0.04640576668 9.660186472e-24)
(-0.202478172 -0.01023784155 3.31307503e-22)
(-0.2154154643 -0.07499819582 -5.820735414e-22)
(-0.2220209738 -0.1450311752 0)
(-0.2188032117 -0.2146760522 8.887313442e-22)
(-0.2016257528 -0.274001632 -4.940875466e-22)
(-0.1668639188 -0.3075811852 -1.572219451e-23)
(-0.1140220085 -0.2953811814 0)
(-0.05288481941 -0.2195802505 -1.890169932e-22)
(-0.004749188016 -0.08377277672 3.360573483e-22)
(-0.0003641987325 0.05902317464 1.551008248e-23)
(-0.01049574069 0.1379881423 -8.7641844e-22)
(-0.02441389764 0.1856803992 -1.157057985e-21)
(-0.04026724719 0.2101384628 -8.628979076e-22)
(-0.05630729938 0.2182348791 0)
(-0.07214856921 0.2146190165 3.513802361e-23)
(-0.08779222054 0.2018791875 -7.294859996e-23)
(-0.1034562843 0.1810005558 5.867878869e-23)
(-0.1193983935 0.1518997222 3.021363105e-22)
(-0.1357931617 0.1139150579 -1.128194606e-23)
(-0.1526082396 0.06621425307 0)
(-0.1694521452 0.008177208954 -3.603926836e-22)
(-0.1852760672 -0.06015987007 7.515663203e-22)
(-0.1980448584 -0.1372746933 8.831698396e-22)
(-0.2043546318 -0.2189261803 -5.29662228e-22)
(-0.1990977651 -0.2959712822 5.162684245e-22)
(-0.1760605351 -0.3514072494 1.078229116e-23)
(-0.1300890638 -0.358415069 -1.095544096e-23)
(-0.06688803285 -0.2843276435 -8.215463627e-23)
(-0.007083319845 -0.1169964385 0)
(-0.0009095778482 0.06540041318 -1.911484862e-23)
(-0.01167591889 0.1502816344 -1.326964344e-21)
(-0.02388882387 0.2000659464 1.09423644e-21)
(-0.03601340853 0.2244216858 6.734924878e-22)
(-0.04657309266 0.2316588138 6.01462786e-22)
(-0.05577039107 0.2272393604 6.643953139e-22)
(-0.06411246435 0.2141774805 -4.458674648e-23)
(-0.07227562414 0.1936494337 -3.461335103e-22)
(-0.08096973801 0.16560283 2.152161047e-22)
(-0.09087193241 0.1292707364 0)
(-0.102554755 0.08353082782 0)
(-0.1163622255 0.027200112 2.65539529e-22)
(-0.1321589655 -0.04062005426 8.194325424e-23)
(-0.1489252407 -0.1200128242 -2.821621197e-22)
(-0.1641284359 -0.2089300619 -5.411268087e-23)
(-0.1727877681 -0.3006992431 1.301951346e-22)
(-0.1670311347 -0.3793329022 -3.400498147e-22)
(-0.136529246 -0.4136451887 -1.593913972e-23)
(-0.0801825019 -0.353832613 8.204236105e-23)
(-0.01050762292 -0.1594130533 -6.032175113e-22)
(-0.002260498697 0.07348883364 0)
(-0.01580355856 0.1626521721 2.145872709e-21)
(-0.02665042973 0.2117904662 0)
(-0.03422340177 0.2333947184 -1.3518068e-21)
(-0.03759399225 0.2377766738 6.184042186e-23)
(-0.03799686117 0.2312553444 -6.193091014e-22)
(-0.03668266878 0.2171898948 -4.756281652e-22)
(-0.034890374 0.1968934454 8.301250211e-22)
(-0.03378839034 0.1703342369 -1.885696787e-22)
(-0.03449877599 0.1367221085 0)
(-0.03811573887 0.09479673914 0)
(-0.04564993592 0.0430428702 2.410617691e-23)
(-0.05790805426 -0.02013780704 -6.007194983e-22)
(-0.075145996 -0.09620649651 -4.309564379e-22)
(-0.09645175935 -0.1855556116 4.637859495e-22)
(-0.1183462695 -0.2853567714 -6.488728836e-22)
(-0.1332715441 -0.3838386475 9.119943184e-23)
(-0.1265351023 -0.4504358651 2.937403414e-23)
(-0.08899154208 -0.4198536314 5.660451678e-22)
(-0.0152691794 -0.2111719697 6.020807826e-22)
(-0.005180899779 0.08598045875 0)
(-0.02525550906 0.1766291157 1.465579522e-22)
(-0.03483408402 0.2205961499 -4.9171401e-23)
(-0.03640014511 0.2354859281 7.642923489e-22)
(-0.03018483892 0.2343406682 -7.005371959e-22)
(-0.01916580446 0.2241603819 4.7464775e-23)
(-0.005615161426 0.2083525794 -1.018608952e-22)
(0.008569595979 0.1881241056 -3.389886725e-22)
(0.02179884959 0.1633911259 2.062821771e-22)
(0.0326278026 0.1333242741 0)
(0.03958457376 0.09664086439 0)
(0.04117012134 0.05174056814 -2.902666088e-22)
(0.0357848277 -0.003255393541 0)
(0.02198183719 -0.07058360398 -5.512183974e-22)
(-0.001264854588 -0.1525735465 -1.49237641e-23)
(-0.03310470602 -0.2505949808 2.559736402e-23)
(-0.06909236399 -0.3599341477 2.203135332e-22)
(-0.09227827388 -0.4575424489 4.788136168e-24)
(-0.0871809008 -0.4698129372 -5.789420626e-22)
(-0.02103127166 -0.2698972268 0)
(-0.01111631565 0.1085974971 0)
(-0.04248902017 0.1947151657 -8.84847278e-22)
(-0.04795529289 0.2258195474 -5.411035864e-22)
(-0.03919536538 0.2282135508 4.543812539e-22)
(-0.0187783111 0.2182328084 -1.709980651e-24)
(0.007664303836 0.2028220309 -4.561045185e-23)
(0.03667992265 0.1847619734 5.696677833e-22)
(0.06582997391 0.1647118194 -2.766888966e-23)
(0.09327129691 0.1423128174 -2.069780651e-22)
(0.117389149 0.1166274949 3.142211946e-23)
(0.1365461576 0.08641144116 -3.425915512e-23)
(0.1489669164 0.05017669338 -3.690592343e-23)
(0.1525275687 0.006159170393 3.205631901e-22)
(0.1449366949 -0.04796126685 6.119602738e-22)
(0.1235159718 -0.1153052878 -5.101168015e-22)
(0.08633532824 -0.2004195624 -1.616054881e-22)
(0.03199088748 -0.3067806571 1.531311435e-22)
(-0.02362123547 -0.4239837124 7.293657696e-23)
(-0.06492413212 -0.4871612765 1.913292376e-21)
(-0.02509971726 -0.3291544725 2.954992326e-21)
(-0.02004680473 0.1460727404 -4.390205653e-23)
(-0.06416406317 0.211295585 4.417378391e-23)
(-0.05070230779 0.2177300461 1.000187936e-21)
(-0.01934097737 0.2014679958 -8.270520948e-24)
(0.02414464358 0.180907615 0)
(0.07154121302 0.1606933322 4.363718209e-23)
(0.1190703316 0.1416495474 -2.273850076e-22)
(0.1644767234 0.1233181812 -9.027949472e-23)
(0.2062251058 0.1048117294 3.680731729e-23)
(0.2429642925 0.0850714018 -1.701654256e-23)
(0.2732207487 0.06296147843 3.429968818e-23)
(0.2952536027 0.03726294035 -6.592677674e-23)
(0.3066970988 0.006535070472 -9.303902398e-23)
(0.3049738251 -0.03087769829 1.517043033e-22)
(0.2863936198 -0.0778629079 0)
(0.2470568043 -0.1399300357 1.505607477e-22)
(0.1810922201 -0.2266299746 2.560014316e-22)
(0.09604449984 -0.3443894939 0)
(-0.006697617226 -0.4552210209 -3.675636085e-21)
(-0.01922408224 -0.377753758 -2.89262177e-21)
(-0.02591951314 0.2276828799 -9.51420352e-22)
(-0.03998324605 0.2238216527 -1.388975922e-22)
(0.0365613689 0.1810585355 -2.335580208e-22)
(0.1090503037 0.1451059083 -1.193741146e-22)
(0.1817191171 0.1172445485 -4.295822429e-23)
(0.2490090695 0.09627907538 9.783169326e-23)
(0.3100336652 0.08002510354 -1.408590594e-22)
(0.3646209273 0.06656815315 1.297174206e-22)
(0.4126252429 0.05449178913 -8.620114194e-23)
(0.4536250235 0.04270894985 1.132192299e-25)
(0.4867878664 0.03032298505 1.527740878e-23)
(0.5107451312 0.01652901958 7.997200781e-23)
(0.5236597413 0.000536515315 -1.811122837e-22)
(0.523179798 -0.01863373163 -1.617145176e-22)
(0.5052323395 -0.04286478889 -4.262946722e-23)
(0.4658715064 -0.07633231143 0)
(0.3952696484 -0.1286089383 -1.846479728e-22)
(0.2916071037 -0.2208468097 8.148765727e-22)
(0.1197455099 -0.3525016902 1.631601964e-21)
(0.02670547242 -0.3775497978 2.172656102e-21)
(0.2142894471 0.1347447206 9.864988316e-22)
(0.2776311191 0.09870503547 0)
(0.4316592298 0.05810414834 -2.594319725e-22)
(0.5304749353 0.03846264955 -1.741665268e-22)
(0.6016965752 0.02623419114 0)
(0.6571198952 0.01831923476 -6.009084194e-23)
(0.7015213588 0.01313600852 6.377993559e-23)
(0.7376042479 0.009542126441 -1.800154454e-23)
(0.7669368392 0.006804463736 2.885971165e-23)
(0.790210666 0.004464744039 2.315031244e-23)
(0.8074554988 0.002221319987 0)
(0.8182621336 -0.0001500748603 -2.873031194e-23)
(0.8216499702 -0.002723848182 0)
(0.8162394189 -0.005712668577 2.738147352e-23)
(0.7991333145 -0.009611382789 1.421688148e-23)
(0.7679986345 -0.01500255106 -5.79940753e-23)
(0.7106555756 -0.02502519957 -2.535662266e-22)
(0.6235183981 -0.04204285411 -6.918103558e-22)
(0.423009102 -0.09182968084 0)
(0.2705674689 -0.1524021841 -2.119483962e-21)
)
;

boundaryField
{
    movingWall
    {
        type            fixedValue;
        value           uniform (1 0 0);
    }
    fixedWalls
    {
        type            fixedValue;
        value           uniform (0 0 0);
    }
    frontAndBack
    {
        type            empty;
    }
}


// ************************************************************************* //
