/*--------------------------------*- C++ -*----------------------------------*\
  =========                 |
  \\      /  F ield         | OpenFOAM: The Open Source CFD Toolbox
   \\    /   O peration     | Website:  https://openfoam.org
    \\  /    A nd           | Version:  13
     \\/     M anipulation  |
\*---------------------------------------------------------------------------*/
FoamFile
{
    format      ascii;
    class       volVectorField;
    location    "39";
    object      U_0;
}
// * * * * * * * * * * * * * * * * * * * * * * * * * * * * * * * * * * * * * //

dimensions      [0 1 -1 0 0 0 0];

internalField   nonuniform List<vector> 
400
(
(0.0001818255889 -0.0001856927322 0)
(-0.0001390218622 3.078781974e-05 0)
(-0.001532580674 0.0002685671259 0)
(-0.003780427632 0.0004193961496 0)
(-0.006535345423 0.0004990834602 0)
(-0.00949647619 0.0005293693692 0)
(-0.01241422963 0.0005200283652 0)
(-0.01505549537 0.0004700245345 0)
(-0.01718028819 0.0003726245373 0)
(-0.01854245249 0.0002224688643 0)
(-0.01891689134 2.280667581e-05 0)
(-0.01814881737 -0.0002089883944 0)
(-0.01621301528 -0.0004390260989 0)
(-0.01326463264 -0.0006208361225 0)
(-0.009659341939 -0.0007058789623 0)
(-0.005922676834 -0.00065924598 0)
(-0.002659925512 -0.0004747080798 0)
(-0.0004121159362 -0.0001827048156 0)
(0.0005363364422 0.0001359047192 0)
(0.0003085233393 0.0003015695216 0)
(-4.780543644e-05 0.0001379342016 0)
(-0.002074548507 0.001928929262 0)
(-0.006417765087 0.003751695049 0)
(-0.01255208458 0.005011970951 0)
(-0.01972120481 0.00567519216 0)
(-0.02725544127 0.00581767402 0)
(-0.03455097053 0.005490012479 0)
(-0.04102708462 0.004698752678 0)
(-0.04610541473 0.003434218911 0)
(-0.04922901841 0.001715763439 0)
(-0.04992608668 -0.000364151943 0)
(-0.04790702697 -0.002611654593 0)
(-0.0431724552 -0.00473049214 0)
(-0.03609997477 -0.006358467744 0)
(-0.02747239285 -0.007143475113 0)
(-0.01841357223 -0.006848522249 0)
(-0.0102108643 -0.005458029099 0)
(-0.004032367011 -0.00325290731 0)
(-0.0005795306721 -0.0008634221179 0)
(0.0002202662392 0.0005854822304 0)
(-0.0003529353618 0.001714143221 0)
(-0.004473423752 0.006449941838 0)
(-0.01183654931 0.01064637011 0)
(-0.02153910705 0.01348395367 0)
(-0.03248708464 0.01491382959 0)
(-0.04377030168 0.01506335389 0)
(-0.0545520959 0.01402185818 0)
(-0.0640180167 0.01181188096 0)
(-0.07136778179 0.008446870885 0)
(-0.07585113447 0.004021254179 0)
(-0.07684975178 -0.001205300234 0)
(-0.07399246258 -0.006757805471 0)
(-0.06728041794 -0.01195202524 0)
(-0.05719185409 -0.01597303861 0)
(-0.04472833813 -0.01803283193 0)
(-0.03135893148 -0.01759156625 0)
(-0.01882184109 -0.01459284218 0)
(-0.008781373372 -0.009637045553 0)
(-0.002418364594 -0.0040549662 0)
(3.40423376e-05 1.923368183e-05 0)
(-0.000629425039 0.004582945217 0)
(-0.006789630895 0.01363721511 0)
(-0.01704982297 0.0208651157 0)
(-0.0300607675 0.02556094781 0)
(-0.04438857969 0.02778934694 0)
(-0.05894265709 0.027768826 0)
(-0.07274059994 0.02563875724 0)
(-0.08482704118 0.02144566536 0)
(-0.09426488951 0.01524146774 0)
(-0.1001735886 0.007221466674 0)
(-0.10181193 -0.002151299573 0)
(-0.09869523044 -0.0120730883 0)
(-0.09073125755 -0.02140559337 0)
(-0.07835386744 -0.02878763224 0)
(-0.0626196299 -0.03286940167 0)
(-0.04521172514 -0.03266399346 0)
(-0.02827726327 -0.02795355716 0)
(-0.01406135893 -0.01961665205 0)
(-0.004427109769 -0.009739574545 0)
(-0.0001261618428 -0.001520917632 0)
(-0.0008676360987 0.008628445308 0)
(-0.008862114924 0.02326427897 0)
(-0.02175329097 0.03407916766 0)
(-0.03775364594 0.04080601428 0)
(-0.05511064814 0.04379592044 0)
(-0.07259823662 0.04343436789 0)
(-0.08915451989 0.03993766974 0)
(-0.1037558291 0.03338234977 0)
(-0.1153899327 0.02385526368 0)
(-0.1230790214 0.01164151775 0)
(-0.1259473284 -0.002609668013 0)
(-0.1233290782 -0.01778018361 0)
(-0.1149151422 -0.03226877959 0)
(-0.1009317446 -0.04410564211 0)
(-0.08232345147 -0.05123702303 0)
(-0.06087391007 -0.05200785591 0)
(-0.03914557309 -0.04579146981 0)
(-0.02013297958 -0.03357400327 0)
(-0.006672297816 -0.01819750714 0)
(-0.0002723867895 -0.004092509836 0)
(-0.001064023974 0.01369099099 0)
(-0.01061087692 0.03503128597 0)
(-0.02575734827 0.04993864642 0)
(-0.04433712438 0.05885658386 0)
(-0.06433109955 0.06259578395 0)
(-0.0844256239 0.06180016767 0)
(-0.1035371231 0.0568000892 0)
(-0.1206353852 0.04770451487 0)
(-0.1346849498 0.03461145252 0)
(-0.1446369646 0.01784793763 0)
(-0.1494666956 -0.001817498597 0)
(-0.1482610032 -0.02302125338 0)
(-0.1403706491 -0.04374011901 0)
(-0.1256395668 -0.06135881631 0)
(-0.1046990621 -0.07295648889 0)
(-0.07926125418 -0.07589872696 0)
(-0.05225239022 -0.0687442411 0)
(-0.02758043996 -0.0522489408 0)
(-0.009435417719 -0.02995559354 0)
(-0.0004474508362 -0.007845597033 0)
(-0.001211138902 0.01957966481 0)
(-0.01196230374 0.04855765513 0)
(-0.02888612762 0.0679990197 0)
(-0.04952291238 0.0792736409 0)
(-0.07165680652 0.0838054967 0)
(-0.09393716216 0.08258980316 0)
(-0.1153129083 0.07611293762 0)
(-0.1348060431 0.06451623748 0)
(-0.1514129304 0.04787013947 0)
(-0.1640534206 0.02646724021 0)
(-0.1715648393 0.001086824469 0)
(-0.1727568449 -0.02678552616 0)
(-0.166550946 -0.05480368351 0)
(-0.1522432788 -0.07972509201 0)
(-0.1299109415 -0.09762043169 0)
(-0.1009157142 -0.1045067025 0)
(-0.06834236963 -0.09754394498 0)
(-0.03706633118 -0.07665803023 0)
(-0.01307780073 -0.04586456224 0)
(-0.0007027412046 -0.01310939357 0)
(-0.001300404756 0.02606535284 0)
(-0.01284533819 0.06337600407 0)
(-0.03096839523 0.08769926216 0)
(-0.05300900712 0.1014848665 0)
(-0.07662803151 0.1068966716 0)
(-0.1004856443 0.1053697073 0)
(-0.1236136749 0.09759270716 0)
(-0.1451457052 0.08374241632 0)
(-0.1641761351 0.06381939202 0)
(-0.1796614898 0.03799200664 0)
(-0.1903624456 0.006914713743 0)
(-0.1948462959 -0.02797491431 0)
(-0.1915865074 -0.06417974891 0)
(-0.1792183812 -0.09794636902 0)
(-0.157013848 -0.1242921724 0)
(-0.1255925701 -0.1375420035 0)
(-0.08776351913 -0.1327223723 0)
(-0.04916758642 -0.1079545682 0)
(-0.01799476358 -0.06709610089 0)
(-0.001101408135 -0.02041734411 0)
(-0.001327120234 0.03288451637 0)
(-0.01321337496 0.07894058528 0)
(-0.03187377164 0.1083612382 0)
(-0.0545307953 0.1247590319 0)
(-0.07878767605 0.1311355578 0)
(-0.1033559791 0.1294500164 0)
(-0.1273957216 0.1206475527 0)
(-0.1502121058 0.1049553774 0)
(-0.1710766278 0.08227386705 0)
(-0.1890828435 0.05256512273 0)
(-0.2030334399 0.0162193145 0)
(-0.2113748177 -0.02557228834 0)
(-0.2122208763 -0.07040926089 0)
(-0.2035369743 -0.1142792566 0)
(-0.1835977579 -0.1512864364 0)
(-0.1518333876 -0.1738831391 0)
(-0.1100993774 -0.1741988854 0)
(-0.06418572918 -0.1471486486 0)
(-0.02458605811 -0.09506461051 0)
(-0.001726521611 -0.03052048455 0)
(-0.001297852018 0.03976164587 0)
(-0.01308274141 0.09465997038 0)
(-0.03158021279 0.1292098232 0)
(-0.0539565323 0.14820075 0)
(-0.07780811997 0.1555473302 0)
(-0.1019322234 0.1538167953 0)
(-0.125658588 0.1442764089 0)
(-0.1485229422 0.1272392848 0)
(-0.170059789 0.1025028595 0)
(-0.1896230709 0.06977222863 0)
(-0.2062243618 0.02905931707 0)
(-0.2183923917 -0.01888973919 0)
(-0.224093719 -0.07207077598 0)
(-0.2207707926 -0.1266085328 0)
(-0.2056619774 -0.1760891505 0)
(-0.1766319623 -0.2112427863 0)
(-0.1337579504 -0.2207550118 0)
(-0.08186982289 -0.1946337453 0)
(-0.03320049761 -0.1312374513 0)
(-0.002691887908 -0.04439512162 0)
(-0.001240330926 0.04645746978 0)
(-0.01258436217 0.1099659873 0)
(-0.03026308553 0.1494260251 0)
(-0.0514109817 0.1707777361 0)
(-0.0736538139 0.1789203311 0)
(-0.09591359697 0.177118104 0)
(-0.1177357464 0.167037835 0)
(-0.1389438202 0.1491362483 0)
(-0.1594166166 0.1231409633 0)
(-0.1788915875 0.08849845088 0)
(-0.1967723223 0.04478441293 0)
(-0.2119200183 -0.007853784987 0)
(-0.2224706485 -0.06812927346 0)
(-0.2256675136 -0.1327801289 0)
(-0.217917526 -0.1955411697 0)
(-0.1953893457 -0.2460418644 0)
(-0.1556339459 -0.269529471 0)
(-0.1010400429 -0.2495234144 0)
(-0.04400853539 -0.1767700753 0)
(-0.004152028025 -0.06323198977 0)
(-0.001216908917 0.05285095845 0)
(-0.01202817768 0.1244266227 0)
(-0.02839512795 0.1682370882 0)
(-0.04740194843 0.19138353 0)
(-0.06673782619 0.199856356 0)
(-0.08551894977 0.1977168222 0)
(-0.1035746089 0.187111345 0)
(-0.1210757221 0.1687092306 0)
(-0.1383094826 0.1422305427 0)
(-0.1554880283 0.1069123855 0)
(-0.1725545479 0.06190744735 0)
(-0.1889581133 0.006694343975 0)
(-0.2033403456 -0.05837178243 0)
(-0.2131996897 -0.1311523516 0)
(-0.2146230633 -0.2063746197 0)
(-0.2023577854 -0.2736895543 0)
(-0.1710625646 -0.3157810746 0)
(-0.1192025981 -0.3089171128 0)
(-0.05675556516 -0.2318943079 0)
(-0.006304678611 -0.08837628813 0)
(-0.001346138774 0.05906804556 0)
(-0.01198702304 0.1379043826 0)
(-0.02684715811 0.1850310205 0)
(-0.04291455568 0.2089172064 0)
(-0.05800951315 0.2168488007 0)
(-0.07158571885 0.2137948381 0)
(-0.0838735608 0.2024406479 0)
(-0.09546175537 0.1837206062 0)
(-0.1070858849 0.1574135946 0)
(-0.1194701564 0.1226298947 0)
(-0.133166407 0.07818346288 0)
(-0.148342567 0.0229324215 0)
(-0.1644549073 -0.04375940403 0)
(-0.1797786364 -0.1212401272 0)
(-0.1907903254 -0.2060595848 0)
(-0.1915889482 -0.2893753059 0)
(-0.1742496384 -0.3531965655 0)
(-0.1323568487 -0.3673737932 0)
(-0.07037717613 -0.2950276283 0)
(-0.009371789609 -0.1211455485 0)
(-0.00184340415 0.06567996133 0)
(-0.01341539261 0.1507521241 0)
(-0.02697260585 0.1994573663 0)
(-0.03941317925 0.2223312691 0)
(-0.04887259325 0.2283381955 0)
(-0.05542328377 0.2234549525 0)
(-0.05989022323 0.210898917 0)
(-0.06336786994 0.1918619762 0)
(-0.06705351614 0.1662129364 0)
(-0.07215539024 0.1330156879 0)
(-0.07979910182 0.09087495683 0)
(-0.09088316046 0.03818990492 0)
(-0.1058162408 -0.0265512626 0)
(-0.1240463857 -0.1042144118 0)
(-0.1432410359 -0.1937248801 0)
(-0.1580421127 -0.2892563187 0)
(-0.1590876649 -0.3748760406 0)
(-0.1351474205 -0.4169688308 0)
(-0.08251884482 -0.3617317543 0)
(-0.01350764652 -0.1623655444 0)
(-0.003080928268 0.07399601897 0)
(-0.01779731881 0.164013268 0)
(-0.03059007004 0.2114293095 0)
(-0.03857304701 0.2305537994 0)
(-0.04068445038 0.232654919 0)
(-0.03812301882 0.2247265773 0)
(-0.0325896095 0.2103693393 0)
(-0.02578262785 0.1909128724 0)
(-0.01934694449 0.1662718747 0)
(-0.01489327087 0.1355026015 0)
(-0.01400312876 0.09712730876 0)
(-0.01818704747 0.04931025676 0)
(-0.02874861032 -0.01001728963 0)
(-0.04645289881 -0.08292366767 0)
(-0.07076162345 -0.1707136317 0)
(-0.09819383573 -0.2716155253 0)
(-0.119879094 -0.3747857846 0)
(-0.1212021523 -0.4481945625 0)
(-0.08903008109 -0.4240513674 0)
(-0.01848945139 -0.2115654378 0)
(-0.005575831284 0.08656013931 0)
(-0.02713372126 0.1795145796 0)
(-0.03942783817 0.2207627042 0)
(-0.04105241016 0.2320273396 0)
(-0.03299194765 0.2276378504 0)
(-0.01842295109 0.2152998185 0)
(-0.0002503680954 0.1985876777 0)
(0.01916457496 0.1786875013 0)
(0.03779489691 0.155417934 0)
(0.05375826295 0.1278062187 0)
(0.06518772924 0.09438495493 0)
(0.07015936965 0.05330835523 0)
(0.06668590776 0.002352514106 0)
(0.05284205647 -0.06115393919 0)
(0.02722946437 -0.1402556923 0)
(-0.009531840368 -0.2373044642 0)
(-0.05137859944 -0.3489959425 0)
(-0.08322900356 -0.4514160008 0)
(-0.08347542872 -0.4709756651 0)
(-0.0231149685 -0.2666151919 0)
(-0.009893054055 0.1087215314 0)
(-0.0429799625 0.1995730374 0)
(-0.05221214209 0.2257146581 0)
(-0.041764636 0.2232396939 0)
(-0.01783260841 0.2095169788 0)
(0.01331892172 0.191765067 0)
(0.0475162816 0.1726740977 0)
(0.08192905288 0.1528045803 0)
(0.1143926403 0.1316430313 0)
(0.14300359 0.1081207627 0)
(0.1658569169 0.08084271126 0)
(0.1808732281 0.04814022385 0)
(0.1856788869 0.008001768559 0)
(0.1775664529 -0.0421779344 0)
(0.1535862578 -0.1060824143 0)
(0.1113635745 -0.1890046887 0)
(0.05220961029 -0.2959123409 0)
(-0.01259593465 -0.4176680685 0)
(-0.05679413114 -0.4888744308 0)
(-0.02466014862 -0.3239691824 0)
(-0.01780600624 0.1516909349 0)
(-0.06129251612 0.2236426101 0)
(-0.05226251741 0.2176628431 0)
(-0.01435356299 0.1949324084 0)
(0.03542032371 0.1710509353 0)
(0.08861445981 0.1490674447 0)
(0.141246186 0.1293767514 0)
(0.1910309088 0.1113844529 0)
(0.2363732195 0.09404912008 0)
(0.2758719593 0.07618691852 0)
(0.307994404 0.05656034136 0)
(0.3308700908 0.03384162837 0)
(0.3421185533 0.006510514626 0)
(0.3387410303 -0.02741854639 0)
(0.3169270445 -0.07110533208 0)
(0.272088629 -0.130484567 0)
(0.2000272806 -0.2164592882 0)
(0.1029171369 -0.3383335069 0)
(0.004316687572 -0.4567645372 0)
(-0.01597092948 -0.3692931531 0)
(-0.02421513843 0.2082844681 0)
(-0.0379011974 0.2303762008 0)
(0.03728665776 0.1765416709 0)
(0.1250644254 0.1368532043 0)
(0.2058267187 0.1090524498 0)
(0.277993011 0.08820528607 0)
(0.342231565 0.07211112687 0)
(0.3988321912 0.05917971063 0)
(0.4478449239 0.04802816993 0)
(0.4890384792 0.037523949 0)
(0.5217435691 0.02672220083 0)
(0.5447238159 0.0147731267 0)
(0.5560936021 0.0008019701816 0)
(0.5531969446 -0.01626415298 0)
(0.532215554 -0.0382633858 0)
(0.4876800291 -0.06913419717 0)
(0.4111013522 -0.1190942128 0)
(0.2908577503 -0.2093523494 0)
(0.1331140883 -0.3382897626 0)
(0.03876365323 -0.3403589318 0)
(0.2418906074 0.1091382539 0)
(0.3134713824 0.09712485334 0)
(0.4443437015 0.05697066649 0)
(0.5496515517 0.03510600931 0)
(0.6240741724 0.02373270575 0)
(0.6796044006 0.01670159163 0)
(0.723466955 0.01197282629 0)
(0.7587623172 0.008689568148 0)
(0.7870429217 0.006254321197 0)
(0.8091077557 0.00423453682 0)
(0.8251351137 0.002334909174 0)
(0.834753388 0.0003478270569 0)
(0.8370981146 -0.001903311689 0)
(0.8307470509 -0.00458606089 0)
(0.8133948984 -0.008026089652 0)
(0.7811457858 -0.01288639077 0)
(0.7257047011 -0.02123464374 0)
(0.629871332 -0.03809781959 0)
(0.4592696076 -0.08555468581 0)
(0.3048928482 -0.1256983434 0)
)
;

boundaryField
{
    movingWall
    {
        type            calculated;
        value           uniform (1 0 0);
    }
    fixedWalls
    {
        type            calculated;
        value           uniform (0 0 0);
    }
    frontAndBack
    {
        type            empty;
    }
}


// ************************************************************************* //
