/*--------------------------------*- C++ -*----------------------------------*\
  =========                 |
  \\      /  F ield         | OpenFOAM: The Open Source CFD Toolbox
   \\    /   O peration     | Website:  https://openfoam.org
    \\  /    A nd           | Version:  13
     \\/     M anipulation  |
\*---------------------------------------------------------------------------*/
FoamFile
{
    format      ascii;
    class       vectorField;
    location    "17.61";
    object      U_all;
}
// * * * * * * * * * * * * * * * * * * * * * * * * * * * * * * * * * * * * * //


400
(
(1.084781983e-05 -3.759674379e-05 0)
(-0.0006657611245 0.0004127906254 -1.555231865e-23)
(-0.002183374618 0.0009194977217 0)
(-0.004043704207 0.001311373076 0)
(-0.005965528697 0.001533367598 6.841862108e-25)
(-0.007754462005 0.00156810643 4.142555695e-24)
(-0.009274684836 0.001422012421 -7.356597299e-24)
(-0.01042513148 0.001118553157 7.547701473e-24)
(-0.01112574044 0.0006954189711 -2.09739187e-25)
(-0.01131649011 0.0002029576601 -3.998256348e-24)
(-0.01096230418 -0.0002998520065 5.808534594e-24)
(-0.01006462143 -0.0007467730215 -5.934365861e-23)
(-0.008674355968 -0.001074657178 -6.559631275e-23)
(-0.006899682797 -0.001232207235 -7.792805567e-23)
(-0.004909793624 -0.001192083316 4.580618773e-24)
(-0.002928071081 -0.0009617944114 -4.147118491e-24)
(-0.001207241953 -0.0005915459547 -2.006318076e-22)
(-2.117854259e-05 -0.0001705539713 0)
(0.0005166429595 0.000171267595 1.55063741e-25)
(0.0002223644666 0.0003054406118 -3.110450354e-24)
(-0.0002630814668 0.0008284341952 1.375419756e-25)
(-0.002700163987 0.003380203607 1.565550311e-23)
(-0.006898858702 0.005597897234 1.567668941e-25)
(-0.01193754864 0.006999750475 -8.509480062e-25)
(-0.01711387181 0.00754471638 1.16392072e-24)
(-0.02194850083 0.007285709269 1.3067821e-23)
(-0.02607950736 0.006314965202 1.385670437e-24)
(-0.02923165574 0.004749572693 -7.295456832e-24)
(-0.03119189263 0.002735280818 1.016381444e-23)
(-0.03180826226 0.0004533558278 4.513553677e-24)
(-0.03099680889 -0.001880529585 -6.323753013e-24)
(-0.02876689924 -0.004017397027 2.952417744e-24)
(-0.02525076997 -0.005701610912 3.897938237e-23)
(-0.02071750632 -0.006700624172 -1.958413067e-24)
(-0.01558116982 -0.006848386262 3.762838653e-24)
(-0.01038175865 -0.006093621856 -9.777955966e-23)
(-0.00573046413 -0.004544735334 9.677200265e-23)
(-0.002235194831 -0.002508213563 -4.040546875e-25)
(-0.0001834602495 -0.00050458703 4.142257113e-25)
(8.31881864e-05 0.0006081626168 0)
(-0.0004182081002 0.002931820903 -2.896210392e-25)
(-0.004641574506 0.008793112903 1.682821694e-23)
(-0.01135659101 0.01322353303 -8.428495001e-24)
(-0.01930139914 0.01577191074 -2.08923609e-25)
(-0.02743783211 0.01650939162 2.052378658e-25)
(-0.03507233401 0.01562577528 6.398459779e-27)
(-0.0416608627 0.01334529082 -1.217852701e-24)
(-0.04677859435 0.009910488687 -4.553228018e-25)
(-0.0500911542 0.005599388671 -1.064244082e-23)
(-0.05135480122 0.0007477922019 0)
(-0.05042443431 -0.00423266481 0)
(-0.04729012705 -0.008873524688 2.674434218e-23)
(-0.0421206489 -0.01266534602 2.817212233e-23)
(-0.0352850121 -0.01511902771 -1.65049947e-24)
(-0.02736989412 -0.01584652117 4.863243434e-23)
(-0.01915832804 -0.0146615949 9.455208546e-23)
(-0.01155567953 -0.01168677537 4.023388563e-23)
(-0.005464219976 -0.007449000896 4.305422658e-25)
(-0.001451583498 -0.00293806503 9.858159259e-26)
(-9.072954003e-05 0.0002233035467 0)
(-0.0005016447222 0.00603770731 -4.222311207e-23)
(-0.006393583523 0.01634923716 -1.672972023e-23)
(-0.01551323415 0.02352823343 8.354599566e-24)
(-0.02624295832 0.02740593424 0)
(-0.03723726615 0.02828538387 0)
(-0.04762780069 0.02655609082 0)
(-0.05672432679 0.0226066879 -4.506801027e-26)
(-0.0639750911 0.01682090057 -2.114903047e-24)
(-0.06892924097 0.009617542942 0)
(-0.07122772294 0.001497174866 1.646443369e-24)
(-0.07063254568 -0.006920647279 2.810085714e-25)
(-0.06706199726 -0.01490644726 -2.817949953e-25)
(-0.06064075178 -0.02163840959 0)
(-0.05176089939 -0.02628543739 4.150803273e-23)
(-0.04111555889 -0.02813197115 -4.698525042e-23)
(-0.02969698398 -0.02675022998 -2.786437645e-23)
(-0.01872434852 -0.02219951059 -4.009388075e-23)
(-0.00948244258 -0.01521195446 7.786097052e-25)
(-0.002975639407 -0.00729800508 9.720266986e-23)
(-0.0002317238084 -0.0008686590913 0)
(-0.0005307523949 0.0100815437 4.242844504e-23)
(-0.007972283296 0.02591725364 4.814738e-25)
(-0.01937006725 0.0363803024 -4.704660794e-25)
(-0.03277952597 0.04180084386 0)
(-0.04658556236 0.04284142865 7.788043228e-25)
(-0.05977590592 0.0401538163 -7.679992041e-25)
(-0.07154449877 0.03431126551 3.666321396e-23)
(-0.08123080172 0.02583421833 1.841153277e-23)
(-0.08826510304 0.01526588652 6.205055907e-24)
(-0.09215384241 0.003254574174 -1.648358749e-24)
(-0.09250708186 -0.009384960479 0)
(-0.08908667526 -0.02163997277 4.396418326e-25)
(-0.08188191082 -0.03232436821 1.020149583e-23)
(-0.07120433085 -0.04016572161 -4.368089632e-23)
(-0.05777035437 -0.0439750703 1.947007241e-24)
(-0.04275077222 -0.04290925543 4.269471758e-23)
(-0.02773292832 -0.03680477994 -3.928402931e-25)
(-0.01453989592 -0.02651085083 0)
(-0.004856121217 -0.01407947517 5.426824828e-23)
(-0.0003637836213 -0.002848203684 -2.555898773e-22)
(-0.0005264588137 0.01497900396 9.856368303e-23)
(-0.00936546925 0.03734001632 -4.922623933e-25)
(-0.02285213943 0.05163419823 0)
(-0.03878128854 0.0588668044 0)
(-0.05531841994 0.06018276136 -8.727525418e-23)
(-0.07134367683 0.05655524965 -8.490101931e-23)
(-0.08596767706 0.04875254503 -4.060856751e-23)
(-0.09844208215 0.03740895495 -1.499599003e-23)
(-0.1080800788 0.02314926939 -5.338621642e-24)
(-0.1142287403 0.006719707486 -8.14119439e-24)
(-0.1162919342 -0.01090357227 6.562301408e-24)
(-0.1137881846 -0.0284436698 8.750486663e-24)
(-0.1064539762 -0.04431257088 -1.887089192e-23)
(-0.09438726386 -0.05668890608 4.280466112e-24)
(-0.07820398693 -0.06371846636 0)
(-0.05918162004 -0.06387703731 -1.602238044e-23)
(-0.03930923422 -0.05649277004 -1.401527405e-26)
(-0.02112576482 -0.04232898841 0)
(-0.007313162151 -0.02396960984 -1.512595691e-22)
(-0.0005210498783 -0.005924524427 6.036545657e-22)
(-0.0004985379382 0.02061833482 -9.789144305e-23)
(-0.01051714877 0.05038834885 2.831421252e-22)
(-0.02579973319 0.06903698308 1.526314378e-22)
(-0.0439716369 0.07839634826 3.617349423e-24)
(-0.06303805633 0.08020172427 -7.310018578e-23)
(-0.08181706787 0.07579930971 9.03381888e-23)
(-0.09937604496 0.06615412218 -3.585113566e-24)
(-0.114910237 0.05197680264 -1.724877342e-24)
(-0.1276325589 0.03390840475 2.517392177e-24)
(-0.1367252372 0.01271258266 7.351283446e-24)
(-0.1413505706 -0.01055344531 -6.463839434e-24)
(-0.1407099668 -0.03440481156 -9.704019867e-24)
(-0.1341692685 -0.05685589943 -3.255767672e-23)
(-0.1214528187 -0.07545116996 -3.603103469e-23)
(-0.1028912413 -0.08745795821 5.525680673e-25)
(-0.07970598432 -0.09031311017 0)
(-0.05422805307 -0.08237991217 0)
(-0.02985030246 -0.06393211961 -2.891578865e-24)
(-0.0106551104 -0.03796490212 2.955723168e-24)
(-0.0007343527559 -0.01049641716 1.026504115e-22)
(-0.0004476919389 0.02683838987 0)
(-0.01133835104 0.06472665401 1.999793966e-22)
(-0.02798909795 0.08818908172 8.951780665e-23)
(-0.04795311161 0.100007236 0)
(-0.06914206685 0.102595633 1.568511112e-22)
(-0.09036294571 0.0977181427 0)
(-0.1106882598 0.08653505796 -1.426137177e-22)
(-0.1293036564 0.06978999619 6.503902375e-24)
(-0.1453642188 0.04806184505 0)
(-0.1579186697 0.02202665317 0)
(-0.1658969437 -0.007297080782 -1.369965333e-24)
(-0.1681544293 -0.03832575348 -9.272127781e-25)
(-0.1636008951 -0.06875656494 1.486076302e-22)
(-0.1514259682 -0.09548539576 -4.696930952e-23)
(-0.1314326311 -0.1147263679 -2.544247483e-24)
(-0.1044958937 -0.1224701854 1.519441566e-24)
(-0.07304887459 -0.1154651683 -1.543420132e-24)
(-0.04132460149 -0.09276723003 0)
(-0.01524250826 -0.05737183587 3.194567324e-24)
(-0.001043397513 -0.01713805133 -1.01039739e-21)
(-0.0003746367396 0.03342344661 0)
(-0.01174203855 0.07989590011 -1.128239558e-22)
(-0.02918626953 0.1085160408 -6.186682307e-22)
(-0.05028131456 0.123090143 -3.751975692e-22)
(-0.07291149344 0.1267815259 0)
(-0.09592365185 0.1218138525 4.114248049e-22)
(-0.1184493989 0.1095476286 1.258935263e-22)
(-0.1397274834 0.09072480939 -5.57150157e-24)
(-0.1589287407 0.06578848269 5.543924348e-24)
(-0.1750493074 0.03521602199 0)
(-0.1868584328 -0.0001582790917 2.906214307e-23)
(-0.1929214024 -0.03883079011 4.683159571e-24)
(-0.1916892844 -0.07834839533 -1.073249914e-22)
(-0.1817024465 -0.1150783477 7.971574761e-23)
(-0.1619817192 -0.1441418162 -2.411727611e-22)
(-0.1326438897 -0.1597365243 0)
(-0.09573279634 -0.1562043303 0)
(-0.05598831056 -0.1302147044 0)
(-0.02146717149 -0.08376103366 0)
(-0.00149930802 -0.0266404065 5.558963209e-22)
(-0.0002879896744 0.04011768565 0)
(-0.01168962104 0.09533447165 -3.490464534e-22)
(-0.02923246325 0.1292730992 8.925693901e-22)
(-0.0505872442 0.1467844911 3.613966469e-22)
(-0.07366777733 0.1518351114 0)
(-0.09740848458 0.1471541598 -3.857696142e-22)
(-0.1210557464 0.1343242457 -3.169957525e-23)
(-0.143975234 0.1140763001 3.328305288e-22)
(-0.1654532854 0.0866713542 1.766772774e-22)
(-0.1845619225 0.05229691733 -4.053764824e-23)
(-0.2000691514 0.01145546065 1.65525846e-23)
(-0.2103992344 -0.03464656827 -8.248469511e-24)
(-0.2136588983 -0.0836729163 3.365820559e-22)
(-0.2077614311 -0.1317631832 0)
(-0.1907670999 -0.1731500898 2.412892883e-22)
(-0.1615828774 -0.2001294803 5.751115784e-24)
(-0.1211254364 -0.2038895975 -5.836891906e-24)
(-0.07382276577 -0.1771110744 1.54115337e-22)
(-0.02970572072 -0.1187991605 -5.414162593e-24)
(-0.002178327715 -0.04003281568 0)
(-0.000212733857 0.04667237763 0)
(-0.01125089364 0.1104450111 0)
(-0.02815525921 0.1495962244 -5.018697567e-22)
(-0.04873992882 0.1700004898 -1.879395126e-23)
(-0.07099133208 0.1764804188 2.036181065e-23)
(-0.09398065954 0.1723266437 -2.01213883e-23)
(-0.1171264347 0.1593893612 -2.313835025e-23)
(-0.1399993603 0.1384162101 -3.025424305e-22)
(-0.1621141243 0.1094871286 6.693979398e-23)
(-0.1827778407 0.07245760356 4.506011211e-23)
(-0.2009662549 0.02738711205 -4.570225886e-23)
(-0.2152097528 -0.02502082776 0)
(-0.2235375715 -0.08289356352 -7.814602229e-23)
(-0.2234416748 -0.1426164603 0)
(-0.2120427956 -0.1980584586 -3.733516267e-22)
(-0.1867156581 -0.2399458855 5.234538072e-22)
(-0.1464166339 -0.2559478152 0)
(-0.09392418203 -0.2330080979 -1.486913783e-22)
(-0.04020868177 -0.1638834537 1.930268675e-22)
(-0.003199807679 -0.05858287759 -3.404223784e-22)
(-0.0002029062283 0.05293377287 0)
(-0.01067866197 0.1247151901 9.176141699e-22)
(-0.02629537522 0.1686052842 -2.43880706e-23)
(-0.04502535456 0.1914956729 9.186139949e-22)
(-0.06496253382 0.1991481775 -2.509884739e-23)
(-0.0853848451 0.1954863485 2.835813247e-23)
(-0.1059515192 0.1826937078 -2.809926445e-23)
(-0.1265164682 0.1615974757 -1.658952822e-23)
(-0.1469273342 0.1321506958 -5.254058182e-22)
(-0.166876903 0.09390457959 -8.895966217e-24)
(-0.1857636901 0.04644373111 9.648832669e-24)
(-0.2025119463 -0.01017491012 3.309782385e-22)
(-0.215446494 -0.07491488369 -5.814113838e-22)
(-0.222045507 -0.1449316398 0)
(-0.2188182108 -0.214563561 8.875730383e-22)
(-0.2016297407 -0.2738797494 -4.931097609e-22)
(-0.1668583116 -0.3074562154 -1.569132736e-23)
(-0.1140116263 -0.2952656477 0)
(-0.05287652737 -0.2194942592 -1.883025142e-22)
(-0.004747958633 -0.08373922946 3.353408528e-22)
(-0.0003658209035 0.05898591485 1.549874059e-23)
(-0.01050669368 0.1378948856 -8.757776123e-22)
(-0.02443641184 0.1855526865 -1.1563035e-21)
(-0.04030045936 0.2099975612 -8.622235404e-22)
(-0.05634978323 0.2180993064 0)
(-0.07219919316 0.2145029708 3.510572183e-23)
(-0.08785024456 0.2017920584 -7.287967462e-23)
(-0.1035212381 0.180947169 5.862159959e-23)
(-0.1194696502 0.1518806256 3.018093721e-22)
(-0.1358695409 0.1139275965 -1.127093871e-23)
(-0.1526878331 0.06625345749 0)
(-0.1695318272 0.008237039968 -3.600293683e-22)
(-0.1853519686 -0.06008479236 7.50938014e-22)
(-0.1981126048 -0.1371886712 8.825436976e-22)
(-0.2044094385 -0.2188313279 -5.290760118e-22)
(-0.1991358661 -0.2958684228 5.158103355e-22)
(-0.1760807797 -0.3512983697 1.075700308e-23)
(-0.1300942046 -0.3583082157 -1.092975824e-23)
(-0.06688528155 -0.2842411278 -8.27448293e-23)
(-0.007082398507 -0.1169591468 0)
(-0.000911347696 0.06537052012 -1.910254874e-23)
(-0.01169099788 0.150202698 -1.32621836e-21)
(-0.02392139946 0.1999545447 1.093526521e-21)
(-0.03606333382 0.2242966882 6.731059722e-22)
(-0.0466385711 0.231537849 6.010948573e-22)
(-0.05584921812 0.2271363823 6.639481608e-22)
(-0.0642023376 0.2141017577 -4.455071575e-23)
(-0.07237452931 0.1936057729 -3.458794817e-22)
(-0.08107562067 0.165591226 2.150587341e-22)
(-0.09098238346 0.1292880211 0)
(-0.102667211 0.08357134308 0)
(-0.116473582 0.02725708941 2.653903355e-22)
(-0.1322656623 -0.04055319728 8.199906144e-23)
(-0.1490230754 -0.1199408924 -2.818374132e-22)
(-0.1642125862 -0.2088549334 -5.408125388e-23)
(-0.1728534068 -0.3006201623 1.303007049e-22)
(-0.1670749978 -0.3792481166 -3.397444242e-22)
(-0.1365509398 -0.4135574641 -1.618203188e-23)
(-0.08018714589 -0.3537546743 8.263178111e-23)
(-0.01050735542 -0.159375331 -6.035453617e-22)
(-0.002262269285 0.07346823523 0)
(-0.01582137589 0.1625919513 2.144750076e-21)
(-0.02669017437 0.2117009933 0)
(-0.03428571279 0.2332913436 -1.3511255e-21)
(-0.03767680131 0.2376751935 6.189518287e-23)
(-0.03809687987 0.231168761 -6.188904787e-22)
(-0.0367957021 0.2171269219 -4.753385985e-22)
(-0.03501271082 0.1968596259 8.295668473e-22)
(-0.03391647488 0.1703286624 -1.884300767e-22)
(-0.03462876041 0.1367418979 0)
(-0.03824455308 0.09483633913 0)
(-0.04577469962 0.04309544288 2.413424729e-23)
(-0.05802632056 -0.02007894438 -6.004267782e-22)
(-0.07525493972 -0.09614717406 -4.307537151e-22)
(-0.09654793475 -0.1854982184 4.636747782e-22)
(-0.1184254523 -0.2853005292 -6.48529736e-22)
(-0.1333300789 -0.3837798407 9.102197118e-23)
(-0.1265696207 -0.4503737112 2.962694505e-23)
(-0.08900346859 -0.419792404 5.661144191e-22)
(-0.01526985604 -0.2111380089 6.024080471e-22)
(-0.00518242103 0.08597008905 0)
(-0.02527376325 0.1765901265 1.466028511e-22)
(-0.03487624758 0.220532222 -4.915248933e-23)
(-0.03646775075 0.2354080457 7.639541814e-22)
(-0.03027594285 0.2342618974 -7.001995274e-22)
(-0.01927654157 0.2240920964 4.744063566e-23)
(-0.005738878373 0.2083028954 -1.018524625e-22)
(0.008437343888 0.1880974408 -3.38777795e-22)
(0.02166223425 0.1633880167 2.061780722e-22)
(0.03249284636 0.133342365 0)
(0.0394547312 0.09667541216 0)
(0.04104821173 0.05178541109 -2.901451895e-22)
(0.03567175351 -0.003206875395 0)
(0.02187899554 -0.07053600561 -5.511304619e-22)
(-0.001355686442 -0.1525305073 -1.484942532e-23)
(-0.03318115397 -0.2505567891 2.559415731e-23)
(-0.06915344279 -0.3598973249 2.201970245e-22)
(-0.09231826335 -0.4575065682 4.789691567e-24)
(-0.08719716394 -0.4697727329 -5.790215831e-22)
(-0.02103297222 -0.2698709828 0)
(-0.01111712153 0.1085965521 0)
(-0.04250394674 0.1946967542 -8.845441864e-22)
(-0.04799223347 0.2257814124 -5.409943964e-22)
(-0.03925695411 0.2281619802 4.542947922e-22)
(-0.01886350469 0.2181776042 -1.711639744e-24)
(0.00755916092 0.2027721861 -4.55963694e-23)
(0.03656085413 0.1847247551 5.694138114e-22)
(0.06570277321 0.1646901838 -2.765596157e-23)
(0.09314161 0.1423090745 -2.068714183e-22)
(0.1172626914 0.1166401945 3.140911906e-23)
(0.136426908 0.08643724674 -3.424712108e-23)
(0.1488574878 0.05021098204 -3.6896651e-23)
(0.1524300903 0.00619690001 3.205025121e-22)
(0.1448518312 -0.0479250926 6.118682242e-22)
(0.1234427714 -0.1152743632 -5.100758215e-22)
(0.08627500207 -0.2003953016 -1.616623395e-22)
(0.03193812288 -0.3067619159 1.53035568e-22)
(-0.02365895673 -0.4239648627 7.293102365e-23)
(-0.06493945922 -0.4871398418 1.913138325e-21)
(-0.02510182745 -0.3291377027 2.954821503e-21)
(-0.02004625747 0.14607774 -4.389501814e-23)
(-0.06417093479 0.2112924387 4.416679524e-23)
(-0.05072434983 0.2177133487 1.000047857e-21)
(-0.01938224777 0.2014399513 -8.222731574e-24)
(0.02408287935 0.1808742551 0)
(0.07146058084 0.1606610752 4.362525621e-23)
(0.1189753982 0.1416238147 -2.273045426e-22)
(0.1643727983 0.1233020727 -9.024481612e-23)
(0.2061178341 0.1048070653 3.679204454e-23)
(0.2428593114 0.08507777181 -1.70093819e-23)
(0.2731226597 0.06297696072 3.428764035e-23)
(0.2951661656 0.03728450522 -6.590998223e-23)
(0.3066210009 0.006559221514 -9.301481887e-23)
(0.304909673 -0.03085445297 1.516993661e-22)
(0.2863414389 -0.07784363314 0)
(0.2470152433 -0.139916733 1.506288647e-22)
(0.181058572 -0.2266239477 2.559758897e-22)
(0.09601935908 -0.3443820669 0)
(-0.006710469651 -0.4552131059 -3.675356147e-21)
(-0.0192261865 -0.3777464283 -2.892454932e-21)
(-0.02591796703 0.2276881373 -9.513837668e-22)
(-0.03998079504 0.2238252758 -1.38887313e-22)
(0.03655862717 0.1810553347 -2.335248307e-22)
(0.1090364884 0.1450959035 -1.193493152e-22)
(0.1816907271 0.1172301351 -4.295741281e-23)
(0.2489652044 0.09626381703 9.78172902e-23)
(0.309976331 0.080012084 -1.408214294e-22)
(0.3645538735 0.0665594421 1.296700349e-22)
(0.4125531532 0.05448859059 -8.616579441e-23)
(0.4535529298 0.04271131266 1.131925965e-25)
(0.4867202429 0.0303300216 1.527291867e-23)
(0.5106854289 0.01653920319 7.995183862e-23)
(0.5236105049 0.0005473344738 -1.810852519e-22)
(0.5231422965 -0.01862321484 -1.617093711e-22)
(0.5052047927 -0.04285630519 -4.263731721e-23)
(0.4658521305 -0.07632699331 0)
(0.3952556181 -0.1286072828 -1.845774677e-22)
(0.2915965316 -0.2208463379 8.148015607e-22)
(0.119739104 -0.3525012537 1.631485432e-21)
(0.0267038519 -0.3775488419 2.172597102e-21)
(0.2142910565 0.1347463012 9.864579022e-22)
(0.2776361314 0.09870706225 0)
(0.4316648183 0.05810509858 -2.594211872e-22)
(0.530477254 0.0384623266 -1.741673832e-22)
(0.6016923374 0.02623291269 0)
(0.6571075598 0.01831761615 -6.008365217e-23)
(0.7015013841 0.01313462403 6.376241651e-23)
(0.737578551 0.009541370918 -1.799408822e-23)
(0.7669081665 0.006804568121 2.884773475e-23)
(0.7901820689 0.004465705751 2.314085919e-23)
(0.8074297474 0.002222960657 0)
(0.8182412452 -0.0001480164132 -2.872252425e-23)
(0.8216351123 -0.002721686216 0)
(0.8162308136 -0.005711042005 2.738124141e-23)
(0.7991296643 -0.009610426695 1.422446699e-23)
(0.7679982798 -0.0150022966 -5.798377895e-23)
(0.7106564865 -0.0250256283 -2.535245933e-22)
(0.6235189798 -0.0420433557 -6.917524164e-22)
(0.4230090402 -0.09183019933 0)
(0.2705673142 -0.1524024187 -2.119427153e-21)
)


// ************************************************************************* //
