/*--------------------------------*- C++ -*----------------------------------*\
  =========                 |
  \\      /  F ield         | OpenFOAM: The Open Source CFD Toolbox
   \\    /   O peration     | Website:  https://openfoam.org
    \\  /    A nd           | Version:  13
     \\/     M anipulation  |
\*---------------------------------------------------------------------------*/
FoamFile
{
    format      ascii;
    class       vectorField;
    location    "8.82";
    object      U_all;
}
// * * * * * * * * * * * * * * * * * * * * * * * * * * * * * * * * * * * * * //


400
(
(5.137243558e-06 -2.789492876e-05 0)
(-0.0006542561219 0.0004043114938 -1.443708821e-23)
(-0.002110365548 0.0008867234585 0)
(-0.003891100215 0.001259156373 0)
(-0.005729408413 0.001469929274 5.729315906e-25)
(-0.007442756423 0.001502665556 4.038406384e-24)
(-0.00890359875 0.001363433884 -3.335260344e-24)
(-0.01001678388 0.001074206248 1.189795141e-23)
(-0.01070623045 0.0006702270316 -2.483125389e-25)
(-0.01091377587 0.0001986772592 -4.610973798e-24)
(-0.01060373816 -0.0002852029866 6.52601366e-24)
(-0.009773879586 -0.0007183278888 -6.558430931e-23)
(-0.008468154569 -0.001040151665 -7.284548718e-23)
(-0.006784910911 -0.001200631117 -8.608960466e-23)
(-0.004881459008 -0.001171779453 5.158891201e-24)
(-0.002968691374 -0.0009584588171 -4.820531527e-24)
(-0.001289821741 -0.0006061816434 -2.508931425e-22)
(-0.0001079954761 -0.0001980989433 0)
(0.0004546996634 0.0001389370895 4.032120115e-25)
(0.0002064275757 0.0002829408167 -3.580130281e-23)
(-0.000252414963 0.0008106151975 1.296222588e-25)
(-0.002584091172 0.003246315001 1.452927463e-23)
(-0.006585080971 0.005351626199 1.404901751e-25)
(-0.01138406626 0.006682065894 -7.150715204e-25)
(-0.01631706524 0.007202240498 9.410812129e-25)
(-0.02093363467 0.006962747828 9.53466996e-24)
(-0.0248936042 0.006049671689 5.026944944e-24)
(-0.02793716557 0.004571332321 -1.154680508e-23)
(-0.02986091144 0.002662161597 1.255452877e-23)
(-0.03051682904 0.0004896598632 5.219591303e-24)
(-0.02981752528 -0.00174174056 -7.107812048e-24)
(-0.02776173418 -0.00380026618 2.547743059e-24)
(-0.02446448031 -0.00544125058 4.24026046e-23)
(-0.0201710864 -0.006439013139 -2.25846059e-24)
(-0.01526761657 -0.006627863832 4.411998608e-24)
(-0.01026527783 -0.005948895639 -1.232546052e-22)
(-0.00575082017 -0.004494487238 1.235251983e-22)
(-0.002314652753 -0.002546107329 -8.946810592e-25)
(-0.0002565413227 -0.0005973459716 9.172466721e-25)
(6.948891785e-05 0.0005361811793 0)
(-0.0003948497869 0.002812425461 -2.680707923e-25)
(-0.004404735692 0.008386322855 1.48482918e-23)
(-0.01077639476 0.01258810718 -8.234330194e-24)
(-0.01832061511 0.0150095419 -1.611929819e-25)
(-0.02605833448 0.01572369509 1.583589318e-25)
(-0.03333755677 0.01490991178 1.05374095e-25)
(-0.03964607475 0.01277639822 -4.731028434e-24)
(-0.04458159014 0.009546066164 -7.01372493e-25)
(-0.04782372567 0.0054738493 -1.314811631e-23)
(-0.04912970524 0.0008695024877 0)
(-0.04835226732 -0.003884555515 0)
(-0.04546952964 -0.008345821745 3.048680287e-23)
(-0.04062257346 -0.01202806133 3.215256094e-23)
(-0.03414900036 -0.01445762177 -1.977426789e-24)
(-0.02659784957 -0.01525042444 6.073409818e-23)
(-0.01871262257 -0.01420950055 1.192845205e-22)
(-0.01136329801 -0.01142976179 6.982103115e-23)
(-0.005426547107 -0.00739292817 1.430716499e-24)
(-0.001476273807 -0.003029494608 -4.319947527e-25)
(-9.295334501e-05 0.0001184438098 0)
(-0.0004701425409 0.005752484592 -3.734411286e-23)
(-0.006044762272 0.01553863773 -1.473186768e-23)
(-0.01468098151 0.02234890231 8.148374271e-24)
(-0.0248576076 0.02604391256 0)
(-0.03530741572 0.02691575107 0)
(-0.04521317906 0.02533015612 0)
(-0.05392328825 0.02164649613 -1.820342386e-25)
(-0.06091271836 0.01621551585 8.247985163e-25)
(-0.06574644115 0.0094192358 0)
(-0.06807270969 0.001718205987 2.61557315e-24)
(-0.0676470025 -0.006314194499 3.451306201e-25)
(-0.06437073179 -0.01398607402 -3.460971652e-25)
(-0.05834464443 -0.02051219983 0)
(-0.04992587286 -0.02508779683 5.330851233e-23)
(-0.03976499486 -0.02700802673 -5.876185845e-23)
(-0.02880728436 -0.02583463714 -4.295654287e-23)
(-0.01822597549 -0.02159015161 -7.018939532e-23)
(-0.00926823963 -0.01494088807 7.37830084e-25)
(-0.002930474936 -0.007305183538 5.791261089e-23)
(-0.0002260583407 -0.0009736899286 0)
(-0.0004969971911 0.009572915342 3.75286837e-23)
(-0.00753577953 0.02458948917 4.921783501e-25)
(-0.01833344277 0.03452594458 -4.809431233e-25)
(-0.03106171165 0.03971023907 0)
(-0.04419923828 0.04077134751 6.843935916e-25)
(-0.05679190432 0.03831865696 -6.749071343e-25)
(-0.06807653658 0.03288018181 3.065638042e-23)
(-0.07742182393 0.0249287744 1.166904269e-23)
(-0.08427560824 0.01495662114 3.802298641e-24)
(-0.08815216629 0.003557576669 -2.618620909e-24)
(-0.08865820636 -0.008508293384 0)
(-0.08554222765 -0.0202847669 6.134681169e-25)
(-0.07877166196 -0.03063429318 1.701257371e-23)
(-0.068626124 -0.03832354065 -5.628489902e-23)
(-0.05577987979 -0.04218525761 2.819308063e-24)
(-0.0413526008 -0.04137210153 7.381084974e-23)
(-0.02687500614 -0.03568095316 -9.039573724e-25)
(-0.01411545895 -0.02587891715 0)
(-0.004725466132 -0.01389494726 5.044851038e-23)
(-0.0003494422762 -0.002906629095 -2.079646064e-22)
(-0.0004958363852 0.0142062239 9.779055137e-23)
(-0.008877925796 0.03541657865 -4.970031256e-25)
(-0.0216885671 0.04901436198 0)
(-0.03685022258 0.05595900313 0)
(-0.05263178372 0.05733120172 -8.182073268e-23)
(-0.0679758932 0.0540387217 -7.777934083e-23)
(-0.08203807367 0.04678674425 -3.395772973e-23)
(-0.09410003074 0.03614730413 -1.122476048e-23)
(-0.103493337 0.02268141926 -3.197072819e-24)
(-0.1095741141 0.00706942843 -6.286018904e-24)
(-0.1117469411 -0.00977856941 4.455244103e-24)
(-0.1095220822 -0.02665382697 4.654387867e-24)
(-0.1026204398 -0.04202819432 -1.681526923e-23)
(-0.09111628626 -0.05413395301 -1.347515471e-23)
(-0.07558938233 -0.06115429396 0)
(-0.05726730086 -0.06157539908 -3.302689816e-23)
(-0.03807474294 -0.0546936272 5.606526559e-25)
(-0.02047703571 -0.04118358329 0)
(-0.007091602383 -0.02348005993 -1.077297683e-22)
(-0.0004984326402 -0.005893150475 5.028021312e-22)
(-0.0004757108574 0.01956414522 -9.711500681e-23)
(-0.01002549505 0.04783858788 2.736285324e-22)
(-0.02461239606 0.06561719138 1.468251592e-22)
(-0.04198830401 0.07463793364 3.42624705e-24)
(-0.06026498759 0.07653696691 -6.927853557e-23)
(-0.07832458883 0.07256936878 8.268773321e-23)
(-0.09527952346 0.06361812701 -3.267642107e-24)
(-0.1103543632 0.05031728179 -1.493374259e-24)
(-0.1227797016 0.03323307531 2.156442774e-24)
(-0.1317466702 0.01305480376 5.624252824e-24)
(-0.1364224012 -0.009233657642 -4.461083648e-24)
(-0.1360042071 -0.03222726339 -5.189181174e-24)
(-0.1298490524 -0.05400436744 -3.038873612e-23)
(-0.1176702727 -0.0721767799 -5.375765756e-24)
(-0.09977439068 -0.08406766006 -7.797667087e-26)
(-0.07734296451 -0.08714716358 0)
(-0.052643871 -0.07976901761 0)
(-0.02898225785 -0.06212816366 -2.138720742e-24)
(-0.01034127321 -0.03705488764 2.186152035e-24)
(-0.0007044334002 -0.01032601515 9.701227887e-23)
(-0.000436779595 0.02551489778 0)
(-0.0108967957 0.06157788911 1.911021494e-22)
(-0.02689924569 0.0840028423 8.551789243e-23)
(-0.04610918375 0.09543255931 0)
(-0.06654112069 0.09814853438 1.47760893e-22)
(-0.08706514312 0.09379747906 0)
(-0.1067974864 0.083438198 -1.316567573e-22)
(-0.124950876 0.06772335862 5.922623289e-24)
(-0.1406950537 0.04714673889 0)
(-0.1530846486 0.02230230377 0)
(-0.1610590631 -0.005871233431 -1.159626438e-24)
(-0.1634657099 -0.03585614473 -7.125638006e-25)
(-0.1592062794 -0.06543359237 1.203628408e-22)
(-0.1474774282 -0.09156986205 -4.397162154e-23)
(-0.1280748749 -0.1105494222 -1.724215187e-24)
(-0.1018547812 -0.1184230577 7.463737833e-25)
(-0.07120426203 -0.1119669085 -7.581476861e-25)
(-0.04026951765 -0.09019258981 0)
(-0.01484104886 -0.05593672802 2.733393036e-24)
(-0.001006258701 -0.0167797154 -8.870182615e-22)
(-0.0003789229575 0.03187485126 0)
(-0.0114064719 0.07623887208 -1.090078721e-22)
(-0.02832123458 0.103671469 -5.93525656e-22)
(-0.04878112666 0.117809221 -3.582352518e-22)
(-0.07076271705 0.1216554596 0)
(-0.09317297544 0.1172929749 3.867989013e-22)
(-0.1151851543 0.1059613207 1.162104079e-22)
(-0.136061995 0.08829642152 -5.097381341e-24)
(-0.1549849433 0.06464560552 5.072153429e-24)
(-0.1709512013 0.03539805259 0)
(-0.1827157127 0.001307166313 2.640712417e-23)
(-0.188845555 -0.03618741869 4.103263527e-24)
(-0.1877947333 -0.0747111354 -9.069740572e-23)
(-0.1781008457 -0.1106961232 6.424920378e-23)
(-0.1588004478 -0.1393379947 -2.03801993e-22)
(-0.130022918 -0.1549168497 0)
(-0.0938030443 -0.1518496304 0)
(-0.05482079733 -0.1268258865 0)
(-0.02099419265 -0.08172526179 0)
(-0.001455054862 -0.02604905477 4.91880604e-22)
(-0.0003093110711 0.03841910935 0)
(-0.01151008104 0.09132149028 -3.353069467e-22)
(-0.02870961866 0.1239515911 8.567714404e-22)
(-0.04962271085 0.1409829254 3.450227437e-22)
(-0.0722380742 0.1462077557 0)
(-0.09554514771 0.1421957808 -3.627763447e-22)
(-0.1188291527 0.1303896992 -2.967034733e-23)
(-0.1414758375 0.1113975901 3.11489515e-22)
(-0.1627752638 0.08537173188 1.647260131e-22)
(-0.1817902345 0.05240432826 -3.771853845e-23)
(-0.1972683386 0.01291751239 1.589720888e-23)
(-0.2076170256 -0.03195462453 -7.497151518e-24)
(-0.2109327189 -0.07992282569 3.095381636e-22)
(-0.205132497 -0.1271758277 0)
(-0.1883055101 -0.1680067523 2.039003885e-22)
(-0.1594036325 -0.1947992939 4.630879697e-24)
(-0.1193855049 -0.1988597287 -4.69994183e-24)
(-0.07267624351 -0.1729771918 1.188359674e-22)
(-0.029196775 -0.1161434059 -4.375341352e-24)
(-0.002127772545 -0.03917469707 0)
(-0.0002509999147 0.04492402607 0)
(-0.01126375051 0.1062797376 0)
(-0.02806477369 0.1440416427 -4.820286075e-22)
(-0.04846278709 0.1639290331 -1.803585839e-23)
(-0.07049493012 0.1705936351 1.93611369e-23)
(-0.09327933677 0.1671557702 -1.913253435e-23)
(-0.1162695065 0.1553082401 -2.178670277e-23)
(-0.1390522948 0.135656895 -2.829893788e-22)
(-0.1611396273 0.1081561564 6.495829455e-23)
(-0.1818190938 0.07255411161 4.189485604e-23)
(-0.200034056 0.02882629204 -4.238486585e-23)
(-0.2142825232 -0.02238248812 0)
(-0.2225671555 -0.0792359268 -6.690618708e-23)
(-0.2223746952 -0.1381284576 0)
(-0.2108569969 -0.1929546342 -3.457384561e-22)
(-0.1854552778 -0.2345069548 4.752366169e-22)
(-0.1452174578 -0.2505912329 0)
(-0.09299528364 -0.228349306 -1.144572087e-22)
(-0.0397267887 -0.1606783934 1.574812635e-22)
(-0.003145426244 -0.05744765997 -3.049537375e-22)
(-0.000256058046 0.05125088373 0)
(-0.0109004996 0.1206345527 8.865172019e-22)
(-0.0266853748 0.1631037719 -2.351465829e-23)
(-0.04552210482 0.1854491021 8.856219739e-22)
(-0.06552391165 0.1932850203 -2.409438632e-23)
(-0.08600267197 0.1903643876 2.701074389e-23)
(-0.1066461159 0.1786996026 -2.676417765e-23)
(-0.1273202052 0.1589569427 -1.572463584e-23)
(-0.1478658875 0.1309452251 -4.98218061e-22)
(-0.1679509359 0.09409279999 -8.426470777e-24)
(-0.1869339059 0.04789224707 9.14387753e-24)
(-0.2037034384 -0.007653519722 3.162139423e-22)
(-0.216536881 -0.07150983436 -5.516016793e-22)
(-0.2228885017 -0.1408171036 0)
(-0.2192926957 -0.2098850777 8.343860167e-22)
(-0.2016786244 -0.2687983368 -4.477942629e-22)
(-0.1665423726 -0.3022474357 -1.424831127e-23)
(-0.1135323857 -0.2904585823 0)
(-0.0525141094 -0.215929727 -1.533560965e-22)
(-0.004695231125 -0.08235569381 3.004870784e-22)
(-0.0004303670708 0.0574860901 1.49836147e-23)
(-0.01093155282 0.1341453714 -8.461063949e-22)
(-0.02530440347 0.180405177 -1.121567882e-21)
(-0.04157707514 0.204285161 -8.312736792e-22)
(-0.05798130567 0.2125510347 0)
(-0.07414576641 0.2096890014 3.366741803e-23)
(-0.0900894557 0.1981048262 -6.981912327e-23)
(-0.1060377365 0.1786027573 5.608899792e-23)
(-0.1222418155 0.1509352203 2.873725503e-22)
(-0.1388555991 0.1142992625 -1.078268245e-23)
(-0.1558127559 0.06775934365 0)
(-0.1726735162 0.01064104076 -3.437435922e-22)
(-0.1883520856 -0.05700591404 7.222910649e-22)
(-0.2007886057 -0.1336144481 8.533813469e-22)
(-0.206566585 -0.2148602243 -5.020333599e-22)
(-0.2006200663 -0.2915477209 4.938295257e-22)
(-0.1768449533 -0.34672532 9.53468762e-24)
(-0.1302583004 -0.3538269847 -9.687807706e-24)
(-0.0667495701 -0.2806282511 -1.130257352e-22)
(-0.007041352475 -0.1154092352 0)
(-0.0009829237954 0.06416051077 -1.854572886e-23)
(-0.01228994312 0.1470146032 -1.291927225e-21)
(-0.02521137134 0.1954464523 1.060839907e-21)
(-0.03804000524 0.2192104846 6.552463081e-22)
(-0.04923484787 0.2265700025 5.842075135e-22)
(-0.05898366387 0.2228488652 6.436479101e-22)
(-0.06779401155 0.2108833275 -4.294140193e-23)
(-0.07634191147 0.1916618679 -3.344434674e-22)
(-0.08533508511 0.1649623196 2.079827697e-22)
(-0.09544401627 0.1298661979 0)
(-0.1072259104 0.08514233354 0)
(-0.1210024328 0.02955115211 2.584630988e-22)
(-0.1366133407 -0.03780654286 8.42079699e-23)
(-0.1530128032 -0.1169412982 -2.671546609e-22)
(-0.1676440375 -0.2056924316 -5.257905851e-23)
(-0.1755246679 -0.2972751964 1.343230662e-22)
(-0.1688458715 -0.3756610485 -3.23799479e-22)
(-0.137413937 -0.4098471347 -2.927767198e-23)
(-0.08036109625 -0.3504761536 1.128712526e-22)
(-0.01049240322 -0.15779565 -6.227725339e-22)
(-0.002334746427 0.07263066282 0)
(-0.01653897751 0.1601516182 2.092988713e-21)
(-0.0282873469 0.2080699363 0)
(-0.03679103174 0.2290747767 -1.319293949e-21)
(-0.04101262709 0.2334992249 6.402555261e-23)
(-0.04213658667 0.2275599824 -5.998870286e-22)
(-0.04139226935 0.2144577943 -4.622765193e-22)
(-0.04000713006 0.1953194849 8.041357401e-22)
(-0.03915353276 0.1699636462 -1.821587229e-22)
(-0.0399683874 0.1374416402 0)
(-0.04355578577 0.09638529469 0)
(-0.05093840847 0.04521714982 2.527222178e-23)
(-0.06292793848 -0.01766812545 -5.865115317e-22)
(-0.07977307352 -0.09367152712 -4.209412828e-22)
(-0.100540327 -0.1830741589 4.574293959e-22)
(-0.1217127751 -0.2829094459 -6.30952774e-22)
(-0.1357448629 -0.3812786604 8.353895521e-23)
(-0.1279852293 -0.447713088 4.332608669e-23)
(-0.08948981158 -0.4171959178 5.718960316e-22)
(-0.01529324897 -0.2097042497 6.215989243e-22)
(-0.005245189006 0.08554685142 0)
(-0.02601480338 0.1750071437 1.483459334e-22)
(-0.03658456282 0.2179335215 -4.82483397e-23)
(-0.03920870292 0.2322267038 7.479608693e-22)
(-0.03397493389 0.2310155375 -6.84322898e-22)
(-0.02377493476 0.2212395511 4.633289704e-23)
(-0.01084337044 0.2061822089 -1.012061044e-22)
(0.002959453509 0.1868984651 -3.290282896e-22)
(0.01603506102 0.1631590333 2.013561791e-22)
(0.02689306972 0.1340021568 0)
(0.03403804806 0.09804350559 0)
(0.03592722906 0.05361832271 -2.843417035e-22)
(0.03092927081 -0.001166962615 0)
(0.0175741461 -0.06853004954 -5.458382074e-22)
(-0.005170106268 -0.1507058001 -1.173806663e-23)
(-0.03640271239 -0.2489311163 2.526516666e-23)
(-0.07169589821 -0.358334561 2.122093581e-22)
(-0.09397565 -0.4559301362 5.051600342e-24)
(-0.08788262976 -0.4680483719 -5.854187367e-22)
(-0.02109908483 -0.268752959 0)
(-0.01115079131 0.1085574217 0)
(-0.04311245147 0.1939497767 -8.701825654e-22)
(-0.04949529808 0.2242315138 -5.353117333e-22)
(-0.04176601935 0.2260560062 4.495488587e-22)
(-0.02234187517 0.2159004207 -1.783869884e-24)
(0.003256709854 0.2006862863 -4.488367967e-23)
(0.03164815757 0.183116767 5.574829587e-22)
(0.06042995308 0.1637491159 -2.704863244e-23)
(0.08775837467 0.1420901194 -2.019349186e-22)
(0.1119851121 0.117106293 3.078963605e-23)
(0.1314311832 0.08746525754 -3.366099277e-23)
(0.144270138 0.0516199237 -3.642561765e-23)
(0.1483093698 0.00779844696 3.172239403e-22)
(0.1412228139 -0.04639175366 6.062055502e-22)
(0.1203175812 -0.1139577282 -5.065678455e-22)
(0.08367910638 -0.199355229 -1.625178954e-22)
(0.02974373382 -0.305945978 1.507198008e-22)
(-0.02521249118 -0.4231547352 7.285621427e-23)
(-0.06561369976 -0.4862201768 1.909379387e-21)
(-0.0251900557 -0.3284230438 2.950475067e-21)
(-0.02002436016 0.1462814033 -4.354298528e-23)
(-0.06445086692 0.2111668123 4.38124851e-23)
(-0.05162016579 0.21703707 9.921310644e-22)
(-0.02106595842 0.2002968317 -6.280978725e-24)
(0.02155722539 0.1795030391 0)
(0.06815688294 0.1593195369 4.299894641e-23)
(0.1150607577 0.140527538 -2.233160382e-22)
(0.1600637342 0.1226027659 -8.852946326e-23)
(0.2016529238 0.1045717726 3.605019117e-23)
(0.2384665236 0.08530081909 -1.667034837e-23)
(0.2689985967 0.06358458882 3.370081902e-23)
(0.2914840183 0.03815178455 -6.502699521e-23)
(0.3033865185 0.007521436766 -9.190387954e-23)
(0.3021601649 -0.02989138771 1.509181839e-22)
(0.2841051825 -0.07702615297 0)
(0.2452301496 -0.1393386686 1.517711405e-22)
(0.179631614 -0.2263223364 2.548778619e-22)
(0.09496495126 -0.3440787247 0)
(-0.00725908925 -0.4548773878 -3.668019427e-21)
(-0.01931417437 -0.377436884 -2.888183084e-21)
(-0.02585521051 0.2279023152 -9.494307252e-22)
(-0.03988038221 0.2239744814 -1.382555732e-22)
(0.0364497909 0.1809278347 -2.316221789e-22)
(0.1084764986 0.1446887204 -1.180745598e-22)
(0.1805340168 0.116641248 -4.278879722e-23)
(0.2471713738 0.0956333612 9.68205547e-23)
(0.3076167119 0.07946325208 -1.387262309e-22)
(0.3617763539 0.06618495533 1.272920801e-22)
(0.4095514695 0.05433757439 -8.444090679e-23)
(0.4505317654 0.04279075029 1.133839869e-25)
(0.4838660718 0.03060608385 1.504139188e-23)
(0.5081416592 0.01695179211 7.88822128e-23)
(0.5215029203 0.0009804678517 -1.793793891e-22)
(0.5215436301 -0.01818661589 -1.609343115e-22)
(0.5040202471 -0.04249504404 -4.25955739e-23)
(0.4650123674 -0.07609545063 0)
(0.3946536615 -0.128524297 -1.825477418e-22)
(0.2911522428 -0.2208270952 8.12541212e-22)
(0.1194668576 -0.3524816621 1.628049656e-21)
(0.02663531995 -0.3775084234 2.170805963e-21)
(0.2143564166 0.1348105531 9.843037477e-22)
(0.2778403768 0.09878986489 0)
(0.431893998 0.05814445872 -2.5846387e-22)
(0.5305745131 0.03844955591 -1.736920621e-22)
(0.6015222075 0.02618103788 0)
(0.6566051503 0.01825096411 -5.95380186e-23)
(0.7006807001 0.01307598335 6.278777334e-23)
(0.7365141244 0.00950848558 -1.761798559e-23)
(0.7657124163 0.006806620982 2.825127203e-23)
(0.7889800562 0.004503653727 2.267601032e-23)
(0.8063376718 0.002290460233 0)
(0.8173462693 -6.06535918e-05 -2.831279381e-23)
(0.820991184 -0.002621402217 0)
(0.8158518664 -0.005636750234 2.720027487e-23)
(0.7989611629 -0.009565784982 1.436624164e-23)
(0.7679727795 -0.0149884869 -5.772159874e-23)
(0.7106910765 -0.02504033562 -2.522865145e-22)
(0.6235450791 -0.04206471937 -6.899789096e-22)
(0.4230067453 -0.09185218242 0)
(0.2705609608 -0.1524126446 -2.117678655e-21)
)


// ************************************************************************* //
