/*--------------------------------*- C++ -*----------------------------------*\
  =========                 |
  \\      /  F ield         | OpenFOAM: The Open Source CFD Toolbox
   \\    /   O peration     | Website:  https://openfoam.org
    \\  /    A nd           | Version:  13
     \\/     M anipulation  |
\*---------------------------------------------------------------------------*/
FoamFile
{
    format      ascii;
    class       vectorField;
    location    "18.35";
    object      U_all;
}
// * * * * * * * * * * * * * * * * * * * * * * * * * * * * * * * * * * * * * //


400
(
(1.095362933e-05 -3.761532588e-05 0)
(-0.0006657991642 0.0004128649752 -1.540537218e-23)
(-0.002183898161 0.0009197401732 0)
(-0.004044804969 0.001311751704 0)
(-0.005967226614 0.001533824132 6.797766209e-25)
(-0.007756694655 0.001568574832 4.155123479e-24)
(-0.009277332649 0.00142242957 -7.205569062e-24)
(-0.01042803622 0.001118867859 7.713305931e-24)
(-0.01112871722 0.000695597605 -2.111009985e-25)
(-0.01131934555 0.0002029899593 -4.019022606e-24)
(-0.01096484993 -0.0002999549029 5.831189558e-24)
(-0.01006669341 -0.0007469736974 -5.952872805e-23)
(-0.008675840428 -0.001074901561 -6.578196528e-23)
(-0.006900532995 -0.001232432693 -7.812175091e-23)
(-0.004910043716 -0.00119223217 4.592209216e-24)
(-0.002927840507 -0.000961827078 -4.158502788e-24)
(-0.001206714775 -0.0005914539272 -2.013328968e-22)
(-2.060790218e-05 -0.0001703703951 0)
(0.0005170508943 0.000171491426 1.57732953e-25)
(0.0002224689108 0.0003055871788 -3.428742369e-24)
(-0.000263133399 0.0008286262102 1.388375705e-25)
(-0.002700999634 0.00338119099 1.549636948e-23)
(-0.006901113478 0.005599675687 1.532491729e-25)
(-0.01194151847 0.007002027647 -8.416000212e-25)
(-0.0171195684 0.007547157358 1.149760046e-24)
(-0.02195572882 0.007287998401 1.290704677e-23)
(-0.02608792163 0.006316834092 1.560013102e-24)
(-0.02924080917 0.004750819927 -7.464213157e-24)
(-0.03120127546 0.002735787464 1.02516213e-23)
(-0.03181735261 0.0004531016523 4.538646816e-24)
(-0.0310051078 -0.001881502512 -6.349479961e-24)
(-0.02877397594 -0.004018914325 2.95274905e-24)
(-0.02525632267 -0.005703427862 3.908427025e-23)
(-0.02072139495 -0.00670245192 -1.96445722e-24)
(-0.01558344433 -0.006849935357 3.774919501e-24)
(-0.0103826631 -0.006094655354 -9.816666446e-23)
(-0.005730407151 -0.004545123907 9.715908247e-23)
(-0.002234698412 -0.002507995892 -4.097642475e-25)
(-0.0001830060944 -0.0005039854654 4.201168128e-25)
(8.325319721e-05 0.0006086410221 0)
(-0.0004183690233 0.002932713289 -2.916591755e-25)
(-0.004643268689 0.008796062355 1.714637217e-23)
(-0.01136072662 0.01322808677 -8.11112664e-24)
(-0.0193083717 0.01577733599 -2.037751223e-25)
(-0.02744760607 0.01651494792 2.001958894e-25)
(-0.03508457994 0.01563080344 1.189928347e-26)
(-0.0416750315 0.01334925361 -1.386823493e-24)
(-0.04679398742 0.009912995916 -4.664634836e-25)
(-0.0501069842 0.005600214826 -1.073465731e-23)
(-0.05137030504 0.0007468885299 0)
(-0.05043885604 -0.004235118724 0)
(-0.04730278076 -0.008877205248 2.684415844e-23)
(-0.04213106316 -0.0126697712 2.826630808e-23)
(-0.03529292685 -0.01512361479 -1.656373006e-24)
(-0.02737530262 -0.01585066324 4.882247867e-23)
(-0.01916148834 -0.01466475874 9.492736591e-23)
(-0.01155708602 -0.01168861356 4.058348255e-23)
(-0.005464538231 -0.007449468053 4.417757661e-25)
(-0.001451451399 -0.002937517227 9.288579259e-26)
(-9.072945489e-05 0.0002240008972 0)
(-0.0005018637591 0.006039778132 -4.256767862e-23)
(-0.006396051175 0.01635504661 -1.704862346e-23)
(-0.01551910501 0.02353661826 8.038257974e-24)
(-0.0262527021 0.02741555532 0)
(-0.03725079471 0.02829499266 0)
(-0.04764466614 0.02656462311 0)
(-0.05674381662 0.02261330304 -5.074659764e-26)
(-0.06399632047 0.0168250034 -2.020112593e-24)
(-0.06895123452 0.009618800882 0)
(-0.07124944569 0.001495529346 1.66877455e-24)
(-0.07065303971 -0.006924918868 2.824497731e-25)
(-0.0670804439 -0.0149128461 -2.832410176e-25)
(-0.06065647632 -0.0216461926 0)
(-0.05177346854 -0.02629369216 4.168525712e-23)
(-0.04112482449 -0.02813971809 -4.716945369e-23)
(-0.02970311078 -0.02675656173 -2.804166302e-23)
(-0.01872780551 -0.02220376589 -4.044869755e-23)
(-0.009483948498 -0.01521391011 7.788262909e-25)
(-0.002975972635 -0.007298052238 9.688190083e-23)
(-0.0002317655543 -0.000867983623 0)
(-0.0005309835046 0.01008518304 4.277478122e-23)
(-0.007975331721 0.02592667918 4.755906744e-25)
(-0.01937729262 0.03639338529 -4.647402189e-25)
(-0.03279146668 0.04181550039 0)
(-0.04660209539 0.04285583458 7.730923259e-25)
(-0.05979650254 0.04016647366 -7.623800531e-25)
(-0.07156834021 0.03432102128 3.649608051e-23)
(-0.08125688355 0.02584027377 1.823532699e-23)
(-0.08829232073 0.01526780903 6.16108877e-24)
(-0.09218104888 0.003252308521 -1.670721435e-24)
(-0.09253317432 -0.009391123092 0)
(-0.08911065411 -0.02164935609 4.423337421e-25)
(-0.08190292264 -0.03233598492 1.028516582e-23)
(-0.07122173872 -0.04017833694 -4.386899099e-23)
(-0.0577837988 -0.04398731242 1.95758653e-24)
(-0.04276023041 -0.04291978341 4.302625083e-23)
(-0.02773874968 -0.03681251544 -3.980572421e-25)
(-0.01454279078 -0.02651525919 0)
(-0.004857021985 -0.01408083809 5.42976266e-23)
(-0.0003638813469 -0.002847863044 -2.553433718e-22)
(-0.0005266633511 0.01498447534 9.817983547e-23)
(-0.009368827046 0.03735355612 -4.891625826e-25)
(-0.02286014425 0.05165254081 0)
(-0.03879454149 0.05888703432 0)
(-0.05533679831 0.06020244487 -8.710075095e-23)
(-0.07136662713 0.05657245107 -8.474040523e-23)
(-0.08599434633 0.04876580815 -4.042525574e-23)
(-0.0984714296 0.03741728655 -1.491433928e-23)
(-0.1081109613 0.02315213155 -5.29979351e-24)
(-0.1142599715 0.006717012579 -8.124168259e-24)
(-0.1163223452 -0.01091148071 6.544396691e-24)
(-0.1138166717 -0.02845601319 8.718259731e-24)
(-0.10647954 -0.04432818388 -1.888443677e-23)
(-0.09440906453 -0.05670628546 4.142539288e-24)
(-0.07822141694 -0.06373587138 0)
(-0.059194395 -0.0638926618 -1.618693624e-23)
(-0.0393174888 -0.05650501508 -9.219175398e-27)
(-0.02113011689 -0.04233683692 0)
(-0.007314657148 -0.0239730277 -1.509636617e-22)
(-0.0005212020957 -0.005924796838 6.031951368e-22)
(-0.0004986839582 0.02062573056 -9.751140327e-23)
(-0.01052048238 0.05040615631 2.82770608e-22)
(-0.02580778274 0.06906074785 1.524535699e-22)
(-0.04398505687 0.07842229959 3.61187983e-24)
(-0.06305676224 0.08022682098 -7.311116753e-23)
(-0.08184053823 0.07582119787 9.016731141e-23)
(-0.09940346146 0.0661710699 -3.580384619e-24)
(-0.1149406012 0.05198764674 -1.722824076e-24)
(-0.1276647773 0.033912514 2.514390007e-24)
(-0.1367581771 0.01270982989 7.33519092e-24)
(-0.1413830958 -0.01056271011 -6.447089432e-24)
(-0.1407409724 -0.0344197604 -9.668730558e-24)
(-0.1341977034 -0.05687527303 -3.258339101e-23)
(-0.1214777114 -0.07547329183 -3.583412016e-23)
(-0.1029117661 -0.08748079875 5.486043562e-25)
(-0.07972156579 -0.09033442442 0)
(-0.05423851992 -0.08239751282 0)
(-0.02985605466 -0.06394432809 -2.887612819e-24)
(-0.01065719987 -0.03797111749 2.951637003e-24)
(-0.0007345521404 -0.01049762322 1.026850977e-22)
(-0.0004477523577 0.0268475951 0)
(-0.01134128743 0.06474847765 2.00009662e-22)
(-0.02799635718 0.0882179618 8.954146817e-23)
(-0.04796538131 0.1000385931 0)
(-0.06915932871 0.1026258546 1.566928921e-22)
(-0.09038475433 0.09774449328 0)
(-0.1107138845 0.08655556863 -1.425642363e-22)
(-0.129332203 0.06980337062 6.500628525e-24)
(-0.1453947185 0.04806738768 0)
(-0.1579501343 0.02202421409 0)
(-0.1659283792 -0.007307149587 -1.369448984e-24)
(-0.1681848721 -0.03834265022 -9.266595616e-25)
(-0.1636294062 -0.06877901246 1.485382824e-22)
(-0.1514515987 -0.09551167102 -4.699616289e-23)
(-0.1314544584 -0.114754302 -2.541494426e-24)
(-0.1045130997 -0.1224972186 1.51605776e-24)
(-0.07306092419 -0.1154885505 -1.539962331e-24)
(-0.04133151743 -0.09278448334 0)
(-0.01524515255 -0.05738150734 3.192993293e-24)
(-0.001043643043 -0.01714050419 -1.010072256e-21)
(-0.0003745910485 0.03343412923 0)
(-0.01174420508 0.07992106145 -1.126316855e-22)
(-0.02919188916 0.1085492306 -6.183747042e-22)
(-0.05029107365 0.1231260899 -3.750767582e-22)
(-0.07292545179 0.1268161109 0)
(-0.09594146616 0.121844004 4.113469741e-22)
(-0.1184704568 0.1095711838 1.258498844e-22)
(-0.1397510309 0.09074038589 -5.570925157e-24)
(-0.1589539797 0.06579537083 5.543353458e-24)
(-0.1750754601 0.03521409393 0)
(-0.1868847942 -0.0001686476917 2.906414768e-23)
(-0.1929473031 -0.0388487987 4.683056415e-24)
(-0.1917140615 -0.07837281689 -1.073042047e-22)
(-0.1817254096 -0.1151075521 7.968865753e-23)
(-0.162002068 -0.1441737069 -2.41151154e-22)
(-0.1326607216 -0.1597684722 0)
(-0.0957452436 -0.156233206 0)
(-0.05599587776 -0.1302372203 0)
(-0.02147025494 -0.08377461597 0)
(-0.001499597998 -0.02664438912 5.557505635e-22)
(-0.0002878283481 0.04012931129 0)
(-0.01169069692 0.09536189038 -3.489083616e-22)
(-0.02923568706 0.1293093178 8.92329505e-22)
(-0.05059325527 0.1468237266 3.612793661e-22)
(-0.07367671352 0.1518728264 0)
(-0.09742011874 0.1471869957 -3.856955806e-22)
(-0.1210696015 0.1343498886 -3.169810669e-23)
(-0.1439907141 0.1140933341 3.328462732e-22)
(-0.165469792 0.08667912627 1.766928371e-22)
(-0.1845789411 0.05229540309 -4.054257351e-23)
(-0.2000863048 0.01144513675 1.65565939e-23)
(-0.210416273 -0.03466482848 -8.249417561e-24)
(-0.2136756498 -0.08369794488 3.366247536e-22)
(-0.2077776836 -0.1317935443 0)
(-0.1907824394 -0.1731839835 2.412676438e-22)
(-0.1615965768 -0.2001645451 5.749820098e-24)
(-0.1211364681 -0.2039226947 -5.835557163e-24)
(-0.07383009484 -0.177138324 1.540453169e-22)
(-0.02970900107 -0.118816729 -5.411668388e-24)
(-0.002178655614 -0.04003853104 0)
(-0.0002124611065 0.04668425504 0)
(-0.01125065959 0.1104732849 0)
(-0.02815553415 0.1496338003 -5.017664864e-22)
(-0.04874125615 0.1700413083 -1.879137507e-23)
(-0.07099392464 0.1765196351 2.036077491e-23)
(-0.09398442312 0.1723606656 -2.012037875e-23)
(-0.11713105 0.1594157623 -2.313958398e-23)
(-0.1400044089 0.1384335902 -3.025575106e-22)
(-0.1621192214 0.1094949656 6.695131463e-23)
(-0.1827827487 0.07245607568 4.506539173e-23)
(-0.2009709567 0.02737691503 -4.570827607e-23)
(-0.2152144459 -0.02503867997 0)
(-0.2235426335 -0.08291784907 -7.815627015e-23)
(-0.2234475146 -0.1426459685 0)
(-0.2120496032 -0.1980918464 -3.733841532e-22)
(-0.186723176 -0.239981395 5.234764361e-22)
(-0.146423985 -0.2559827951 0)
(-0.09392999002 -0.2330385736 -1.486238582e-22)
(-0.04021174094 -0.1639044922 1.929501407e-22)
(-0.003200155552 -0.05859037122 -3.403579071e-22)
(-0.0002025389568 0.05294512696 0)
(-0.01067703536 0.1247427249 9.175494455e-22)
(-0.02629243996 0.1686422984 -2.438592699e-23)
(-0.04502151558 0.1915361119 9.185690613e-22)
(-0.06495808314 0.1991870307 -2.509771446e-23)
(-0.08537985825 0.1955198566 2.835917516e-23)
(-0.1059458892 0.1827193681 -2.810030843e-23)
(-0.126510004 0.1616139343 -1.659125141e-23)
(-0.1469198983 0.1321576138 -5.254631882e-22)
(-0.166868538 0.09390240869 -8.897049676e-24)
(-0.1857547028 0.04643349266 9.65006955e-24)
(-0.2025028525 -0.0101918988 3.310132355e-22)
(-0.2154381385 -0.07493738302 -5.814741591e-22)
(-0.2220389017 -0.1449585252 0)
(-0.2188141755 -0.214593948 8.876379248e-22)
(-0.2016286748 -0.2739126736 -4.931310962e-22)
(-0.1668598329 -0.3074899724 -1.569162383e-23)
(-0.1140144342 -0.295296854 0)
(-0.05287876717 -0.2195174846 -1.882270739e-22)
(-0.004748289177 -0.08374828971 3.352775002e-22)
(-0.0003653841183 0.05899597161 1.549819866e-23)
(-0.01050374062 0.1379200546 -8.757161688e-22)
(-0.02443034159 0.1855871561 -1.156251689e-21)
(-0.04029150606 0.2100355968 -8.621811409e-22)
(-0.05633833053 0.2181359128 0)
(-0.07218554563 0.2145343163 3.510716201e-23)
(-0.08783460149 0.2018156055 -7.288380415e-23)
(-0.1035037235 0.1809616078 5.862618214e-23)
(-0.119450432 0.1518858055 3.018417008e-22)
(-0.1358489377 0.1139242292 -1.127208769e-23)
(-0.15266636 0.06624288187 0)
(-0.1695103279 0.008220885915 -3.60067945e-22)
(-0.1853314866 -0.06010507072 7.509935555e-22)
(-0.1980943218 -0.1372119099 8.825804918e-22)
(-0.2043946467 -0.2188569542 -5.29109356e-22)
(-0.1991255833 -0.2958962129 5.158049943e-22)
(-0.1760753165 -0.3513277849 1.075564936e-23)
(-0.1300928196 -0.3583370809 -1.092836003e-23)
(-0.06688602516 -0.2842644973 -8.286096966e-23)
(-0.007082645794 -0.1169692189 0)
(-0.0009108705115 0.06537859057 -1.910217996e-23)
(-0.01168692941 0.150224006 -1.32617353e-21)
(-0.02391261039 0.1999846163 1.093477763e-21)
(-0.03604986478 0.2243304351 6.730816317e-22)
(-0.04662090523 0.2315705149 6.010816895e-22)
(-0.05582794932 0.2271642018 6.639498156e-22)
(-0.0641780889 0.2141222266 -4.455304711e-23)
(-0.07234783988 0.1936175835 -3.4589597e-22)
(-0.0810470423 0.165594381 2.150713884e-22)
(-0.09095256896 0.1292833706 0)
(-0.1026368521 0.0835604119 0)
(-0.1164435175 0.02724170492 2.653999109e-22)
(-0.1322368526 -0.04057125741 8.198313297e-23)
(-0.1489966561 -0.1199603272 -2.818714458e-22)
(-0.1641898611 -0.2088752341 -5.408179046e-23)
(-0.1728356802 -0.3006415313 1.302624242e-22)
(-0.1670631506 -0.3792710259 -3.396852818e-22)
(-0.1365450812 -0.413581165 -1.62524741e-23)
(-0.08018589086 -0.3537757297 8.274769485e-23)
(-0.01050742541 -0.1593855211 -6.037227604e-22)
(-0.002261791361 0.07347379794 0)
(-0.01581656664 0.1626082099 2.144676243e-21)
(-0.02667944699 0.2117251483 0)
(-0.03426889563 0.2333192561 -1.3510652e-21)
(-0.03765445046 0.2377026006 6.187845451e-23)
(-0.0380698807 0.2311921552 -6.188918905e-22)
(-0.03676519348 0.2171439522 -4.753415415e-22)
(-0.03497968685 0.1968687676 8.295938666e-22)
(-0.03388188912 0.1703301837 -1.884416407e-22)
(-0.03459365949 0.1367365673 0)
(-0.03820976516 0.0948256525 0)
(-0.04574100369 0.04308124549 2.412625722e-23)
(-0.05799437548 -0.02009484922 -6.004356127e-22)
(-0.0752255098 -0.09616320429 -4.30753155e-22)
(-0.09652195335 -0.1855137292 4.636398405e-22)
(-0.118404061 -0.2853157291 -6.484834433e-22)
(-0.1333142637 -0.3837957324 9.106295137e-23)
(-0.126560295 -0.4503905042 2.970312364e-23)
(-0.08900024593 -0.4198089452 5.662277484e-22)
(-0.01526967088 -0.2111471848 6.025850463e-22)
(-0.00518201006 0.08597289062 0)
(-0.02526883478 0.1766006545 1.465886675e-22)
(-0.03486486423 0.2205494818 -4.914972899e-23)
(-0.03644949972 0.235429076 7.639146753e-22)
(-0.03025134581 0.2342831712 -7.00168792e-22)
(-0.0192466354 0.2241105442 4.743951246e-23)
(-0.005705490345 0.2083163253 -1.018386454e-22)
(0.008473040871 0.1881046548 -3.387856003e-22)
(0.02169913931 0.1633888709 2.061791989e-22)
(0.03252930077 0.1333374916 0)
(0.03948980556 0.09666609023 0)
(0.04108114169 0.05177330466 -2.901467753e-22)
(0.03570230431 -0.003219975465 0)
(0.02190678677 -0.070548865 -5.510895113e-22)
(-0.001331141997 -0.1525421387 -1.487014488e-23)
(-0.03316049674 -0.2505671121 2.558670312e-23)
(-0.06913693538 -0.3599072782 2.20093775e-22)
(-0.09230745599 -0.4575162605 4.797886576e-24)
(-0.08719277046 -0.4697835934 -5.79140653e-22)
(-0.02103251174 -0.2698780734 0)
(-0.0111169035 0.1085968089 0)
(-0.04249991624 0.194701727 -8.84505243e-22)
(-0.04798225932 0.225791709 -5.409519106e-22)
(-0.03924032589 0.2281759054 4.542472408e-22)
(-0.01884050269 0.2181925124 -1.711234589e-24)
(0.007587554363 0.2027856481 -4.559246111e-23)
(0.03659300275 0.1847348033 5.69390103e-22)
(0.06573712158 0.1646960445 -2.765557162e-23)
(0.09317664304 0.1423100985 -2.068732424e-22)
(0.1172968551 0.1166367753 3.140871121e-23)
(0.1364591289 0.08643028469 -3.42464221e-23)
(0.1488870604 0.05020172555 -3.689517268e-23)
(0.1524564333 0.006186713074 3.20482636e-22)
(0.1448747615 -0.04793486628 6.118201742e-22)
(0.1234625527 -0.1152827213 -5.100129848e-22)
(0.08629130288 -0.2004018596 -1.61579709e-22)
(0.03195238827 -0.3067669811 1.531298573e-22)
(-0.02364875724 -0.4239699569 7.294122522e-23)
(-0.06493532025 -0.4871456322 1.913309011e-21)
(-0.02510125751 -0.3291422328 2.955007954e-21)
(-0.02004640457 0.1460763912 -4.389301617e-23)
(-0.06416907885 0.2112932897 4.416459101e-23)
(-0.050718398 0.2177178566 9.999570555e-22)
(-0.01937110472 0.2014475224 -8.236299779e-24)
(0.02409955616 0.1808832639 0)
(0.0714823554 0.1606697882 4.362063865e-23)
(0.1190010348 0.1416307648 -2.272874491e-22)
(0.1644008658 0.1233064309 -9.023851445e-23)
(0.2061468129 0.104808332 3.679027712e-23)
(0.2428876753 0.08507605793 -1.700935511e-23)
(0.2731491653 0.06297278401 3.428693968e-23)
(0.2951897951 0.03727868275 -6.590647867e-23)
(0.3066415693 0.006552695719 -9.301346098e-23)
(0.304927015 -0.03086073564 1.516759413e-22)
(0.2863555467 -0.07784884411 0)
(0.2470264794 -0.1399203285 1.505347221e-22)
(0.1810676702 -0.2266255747 2.559918032e-22)
(0.09602615815 -0.3443840773 0)
(-0.006706995774 -0.4552152458 -3.675645293e-21)
(-0.01922561817 -0.3777484087 -2.892635784e-21)
(-0.02591838396 0.2276867185 -9.513663108e-22)
(-0.03998145661 0.2238242979 -1.388777215e-22)
(0.03655936714 0.1810561988 -2.335016298e-22)
(0.1090402188 0.1450986033 -1.193403874e-22)
(0.1816983937 0.1172340265 -4.294972366e-23)
(0.2489770513 0.09626793801 9.779751778e-23)
(0.3099918164 0.08001560059 -1.408001548e-22)
(0.3645719854 0.06656179775 1.296593153e-22)
(0.4125726296 0.05448945734 -8.61615413e-23)
(0.4535724106 0.04271067711 1.132108775e-25)
(0.4867385189 0.03032812342 1.527212567e-23)
(0.5107015675 0.0165364543 7.994720564e-23)
(0.5236238161 0.000544413814 -1.810680814e-22)
(0.5231524354 -0.01862605519 -1.616860202e-22)
(0.5052122439 -0.04285859933 -4.261841986e-23)
(0.4658573727 -0.07632843097 0)
(0.3952594125 -0.1286077297 -1.846394905e-22)
(0.2915993923 -0.2208464666 8.148657051e-22)
(0.1197408369 -0.3525013728 1.631588174e-21)
(0.02670429014 -0.3775491008 2.172647128e-21)
(0.2142906214 0.1347458748 9.864396922e-22)
(0.2776347776 0.09870651443 0)
(0.4316633095 0.05810484209 -2.59393623e-22)
(0.5304766275 0.03846241378 -1.741370129e-22)
(0.6016934815 0.02623325767 0)
(0.6571108913 0.01831805309 -6.007070328e-23)
(0.7015067798 0.01313499763 6.375227646e-23)
(0.7375854929 0.009541575128 -1.79923572e-23)
(0.7669159141 0.006804539763 2.884537801e-23)
(0.7901897982 0.004465445485 2.313965292e-23)
(0.80743671 0.002222517087 0)
(0.8182468957 -0.0001485725535 -2.872080086e-23)
(0.8216391338 -0.002722270722 0)
(0.8162331441 -0.00571148122 2.737345513e-23)
(0.799130656 -0.009610686173 1.421447299e-23)
(0.7679983829 -0.01500236597 -5.799458649e-23)
(0.7106562445 -0.02502551148 -2.535602416e-22)
(0.6235188252 -0.04204321987 -6.918010562e-22)
(0.4230090581 -0.09183005962 0)
(0.2705673563 -0.1524023557 -2.119474445e-21)
)


// ************************************************************************* //
