/*--------------------------------*- C++ -*----------------------------------*\
  =========                 |
  \\      /  F ield         | OpenFOAM: The Open Source CFD Toolbox
   \\    /   O peration     | Website:  https://openfoam.org
    \\  /    A nd           | Version:  13
     \\/     M anipulation  |
\*---------------------------------------------------------------------------*/
FoamFile
{
    format      ascii;
    class       scalarField;
    location    "35.84";
    object      p_all;
}
// * * * * * * * * * * * * * * * * * * * * * * * * * * * * * * * * * * * * * //


400
(
1.509556989e-07
-0.0005473327248
-0.0008893833207
-0.001016887279
-0.0009380373637
-0.0006851663569
-0.0002958519452
0.0001938862148
0.0007475031523
0.001324523449
0.001879336421
0.002359101073
0.002708421014
0.002874183809
0.002814840098
0.002512394195
0.001987327828
0.001296792285
0.0006378702339
4.197558127e-05
0.0005883226348
7.023751462e-06
-0.0003567039141
-0.0004990359001
-0.0004684078818
-0.0002913675266
2.730398273e-06
0.0003846000497
0.0008228069639
0.001280054902
0.001716494951
0.002080986518
0.002323182797
0.002395731764
0.002264756373
0.001921466587
0.001392600512
0.0007432200213
0.0001455742851
-0.000517100225
0.0009525786663
0.0003081580774
-9.309125753e-05
-0.0002394054145
-0.0002332803402
-0.0001048013388
0.000122004991
0.0004258740857
0.0007830853852
0.001161619815
0.001529657436
0.001833054795
0.002021885219
0.002047441797
0.001874601765
0.001493547993
0.0009282523299
0.0002352722643
-0.000463190953
-0.001300150272
0.0009762969151
0.0002581140239
-0.0001921534801
-0.0003444465232
-0.0003536909318
-0.0002566977227
-7.411740037e-05
0.0001814615826
0.0004965143461
0.0008508175453
0.001203173388
0.001510657298
0.001712457631
0.001748040518
0.001568544114
0.001150588602
0.0005059979557
-0.0003184876893
-0.001233810859
-0.002384596947
0.0004806331257
-0.000284847139
-0.0007637698763
-0.0009154904728
-0.0009365195943
-0.0008680834947
-0.000725165522
-0.0005082307128
-0.0002169960583
0.0001393004413
0.0005302339876
0.0009075365897
0.001199980261
0.001326671609
0.001211191008
0.0008003413731
8.00784955e-05
-0.0009175266547
-0.002127504931
-0.003655994235
-0.000686230387
-0.00146699703
-0.001956040724
-0.002107106507
-0.002149901568
-0.002126559641
-0.002042174807
-0.001879543901
-0.001617424355
-0.001245392662
-0.0007789845047
-0.0002627317532
0.0002207491604
0.000561626474
0.0006379809109
0.0003416717766
-0.0003928982103
-0.001563944686
-0.003134728192
-0.005141960684
-0.00266170068
-0.00342340971
-0.003915261744
-0.004080634043
-0.004178007037
-0.004247071022
-0.004278097603
-0.004229043458
-0.004047435496
-0.003689477944
-0.003140624646
-0.002426630603
-0.001633389947
-0.0009033189825
-0.0004247042559
-0.0003985670598
-0.0009881187241
-0.002260465495
-0.004232626943
-0.006828205886
-0.005554884608
-0.006269821813
-0.006768107291
-0.006982045509
-0.007195428261
-0.00744332654
-0.007697038767
-0.007882111134
-0.007902080476
-0.007660521484
-0.007087253426
-0.006159398722
-0.004943653695
-0.003604775929
-0.002413842145
-0.001714421199
-0.001843107889
-0.003014924202
-0.005368360931
-0.008662157966
-0.00943510104
-0.01008144386
-0.01059832125
-0.0109105621
-0.01132595963
-0.0118758387
-0.01251121477
-0.01311959295
-0.01354775707
-0.01362333044
-0.01318245422
-0.01212110018
-0.01042800784
-0.008256541709
-0.005956313608
-0.004061888688
-0.003190152501
-0.003843053655
-0.006426450787
-0.01049164103
-0.01431687739
-0.01487586472
-0.01542285939
-0.01588210847
-0.01658994711
-0.01758007682
-0.01878693566
-0.02005906747
-0.02117755673
-0.02187361322
-0.02185739432
-0.02087228008
-0.01877194153
-0.01562011679
-0.01179509
-0.008037351499
-0.005359909152
-0.004760167816
-0.007181189403
-0.01197927144
-0.02015439147
-0.02060461489
-0.02117480409
-0.0217968101
-0.0228521675
-0.02439042596
-0.02633929633
-0.02851368374
-0.03062762591
-0.03230356055
-0.03309531782
-0.03254076845
-0.03028254919
-0.02617875104
-0.02052494762
-0.01420397716
-0.008691586195
-0.005726656446
-0.007219303205
-0.01246645039
-0.02685641522
-0.0271621765
-0.02770261235
-0.02842302634
-0.02978922564
-0.03188916523
-0.0346589543
-0.03788972091
-0.04123400792
-0.04420513271
-0.04618820517
-0.04647885325
-0.04446315524
-0.0396601057
-0.03212109363
-0.02269881821
-0.01326662563
-0.006485986108
-0.005808678465
-0.01076527433
-0.03433476802
-0.03441818437
-0.03478952634
-0.03540460738
-0.03689191569
-0.03941006723
-0.0429201133
-0.04719775269
-0.05184015003
-0.05625846561
-0.05967982119
-0.06119098343
-0.05977960765
-0.0546558553
-0.04544113369
-0.03269977591
-0.01845315632
-0.006245964262
-0.001674008658
-0.004873643638
-0.0426099061
-0.04227948385
-0.04219570924
-0.04229602965
-0.04351377321
-0.04611646673
-0.05009968364
-0.0552204582
-0.06101514499
-0.06679625948
-0.07164020545
-0.07441310548
-0.07383266567
-0.06867498588
-0.0580720496
-0.042061923
-0.02244013281
-0.003257300832
0.007346992537
0.008341387731
-0.05201041297
-0.05076106989
-0.04967789745
-0.04857899807
-0.04892686236
-0.05112028906
-0.05517298554
-0.06079633673
-0.06743564837
-0.07429001942
-0.08028290034
-0.08407635563
-0.08413078961
-0.07883767718
-0.06684294105
-0.04752355022
-0.02212757889
0.005501684355
0.02471528641
0.03352732571
-0.06365601509
-0.06018931306
-0.05709745977
-0.05376451289
-0.05246565853
-0.05368032864
-0.05736517587
-0.06313837722
-0.07026285158
-0.0778013169
-0.08449300878
-0.08878622409
-0.08889854545
-0.08283982159
-0.0688509072
-0.04562093013
-0.01375160835
0.02441682462
0.05553957791
0.07735581774
-0.08018657373
-0.07107513054
-0.06412138662
-0.05716569557
-0.05343186234
-0.05321595309
-0.05625971566
-0.06191474502
-0.06925989352
-0.07711788381
-0.0840131484
-0.08815260631
-0.08748103858
-0.07965675924
-0.06247960706
-0.03405052079
0.005564867951
0.05859405032
0.1058230889
0.1480677963
-0.1105079628
-0.08585526967
-0.07160723615
-0.0589722758
-0.05191468882
-0.04988444748
-0.05210426811
-0.05751043167
-0.06486126232
-0.07271014684
-0.0793415659
-0.08271486222
-0.08052058705
-0.06988748878
-0.04823255418
-0.01272258901
0.03823618874
0.1071321579
0.1779787209
0.2564765594
-0.1684381424
-0.09990943413
-0.07500952704
-0.05479915546
-0.04462030758
-0.04158685253
-0.0437194968
-0.04938343853
-0.05701910382
-0.064972678
-0.07136354694
-0.07398181876
-0.07013061426
-0.05701409134
-0.03102869207
0.0119293492
0.07559953907
0.1664043071
0.2761620858
0.4377043492
-0.3984294243
-0.1381005846
-0.07497169081
-0.04708970518
-0.03355078243
-0.03003159876
-0.0328038175
-0.03926664278
-0.04756044247
-0.05594100069
-0.06250201735
-0.06503108467
-0.06099632019
-0.04697011348
-0.01875690437
0.02993547701
0.1069557323
0.2334273211
0.4198802761
0.780023458
)


// ************************************************************************* //
