/*--------------------------------*- C++ -*----------------------------------*\
  =========                 |
  \\      /  F ield         | OpenFOAM: The Open Source CFD Toolbox
   \\    /   O peration     | Website:  https://openfoam.org
    \\  /    A nd           | Version:  13
     \\/     M anipulation  |
\*---------------------------------------------------------------------------*/
FoamFile
{
    format      ascii;
    class       scalarField;
    location    "21.56";
    object      p_all;
}
// * * * * * * * * * * * * * * * * * * * * * * * * * * * * * * * * * * * * * //


400
(
1.662651788e-06
-0.0005454197201
-0.0008873267827
-0.001014676103
-0.0009356944893
-0.0006827400159
-0.0002933897922
0.0001963751197
0.0007500552105
0.001327184615
0.001882119932
0.002361995413
0.002711418012
0.002877309106
0.002818151786
0.002515951495
0.001991153798
0.00130087715
0.0006421142442
4.632380556e-05
0.0005898820791
8.77258754e-06
-0.0003548188481
-0.0004970217327
-0.0004662446193
-0.0002890442508
5.185000708e-06
0.0003871321892
0.0008253861549
0.001282705647
0.001719270857
0.002083935109
0.002326321168
0.002399059689
0.002268281204
0.001925211556
0.001396584322
0.0007474308949
0.0001499393433
-0.0005126558526
0.000953973482
0.0003097772167
-9.130530986e-05
-0.0002375011488
-0.0002312556892
-0.0001026201832
0.000124375696
0.0004284276401
0.0007857820679
0.001164446724
0.001532569947
0.001836108578
0.002025125139
0.002050896757
0.001878283561
0.001497461589
0.0009323974935
0.0002396305835
-0.0004586859128
-0.001295520362
0.0009775974959
0.0002596463708
-0.0001904133183
-0.0003425451844
-0.0003516448605
-0.000254499281
-7.1733708e-05
0.0001840605008
0.0004993241965
0.0008537869264
0.001206311497
0.001513938482
0.001715899566
0.00175167556
0.00157240031
0.001154682806
0.0005103348252
-0.0003139204024
-0.001229060102
-0.002379630771
0.0004819947965
-0.0002832817715
-0.0007620027327
-0.0009135261053
-0.0009343397697
-0.0008656848015
-0.0007225428933
-0.0005053712354
-0.0002138947951
0.0001426200284
0.0005337392482
0.000911192176
0.001203774369
0.001330617395
0.001215317571
0.0008046809102
8.465529515e-05
-0.0009127043038
-0.00212245489
-0.003650670576
-0.0006846071162
-0.001465186175
-0.001954058834
-0.002104928224
-0.002147453023
-0.00212379704
-0.002039090531
-0.001876150066
-0.001613743278
-0.001241462984
-0.0007748572691
-0.0002584639191
0.0002251144749
0.0005660754845
0.0006425326216
0.0003463697366
-0.0003880022066
-0.001558807534
-0.003129325008
-0.005136219372
-0.002659624241
-0.003421151176
-0.003912833528
-0.004078001046
-0.004175059731
-0.004243718308
-0.004274302314
-0.00422482137
-0.004042836504
-0.003684574873
-0.00313550768
-0.002421395919
-0.001628127482
-0.0008980849658
-0.0004195041416
-0.0003933523632
-0.0009828029759
-0.00225495221
-0.004226830053
-0.006822022056
-0.005552150418
-0.006266944856
-0.006765038482
-0.006978722547
-0.007191719743
-0.007439108611
-0.007692242395
-0.007876743339
-0.007896212489
-0.007654267639
-0.007080759412
-0.006152801156
-0.004937108635
-0.003598403464
-0.002407697429
-0.001708472236
-0.001837239749
-0.00300897246
-0.005362151716
-0.008655538736
-0.009431501167
-0.010077785
-0.01059446075
-0.01090637346
-0.01132128023
-0.01187052143
-0.01250516512
-0.01311280354
-0.01354031368
-0.01361539082
-0.01317421012
-0.01211278804
-0.01041983719
-0.008248701251
-0.005948924199
-0.004054961815
-0.003183571012
-0.003836593749
-0.006419834568
-0.01048464002
-0.01431227138
-0.01487129676
-0.01541810676
-0.01587695961
-0.01658418909
-0.01757354047
-0.01877951384
-0.02005074269
-0.02116841884
-0.02186385496
-0.02184727804
-0.02086210058
-0.01876198828
-0.01561064705
-0.0117862892
-0.008029288266
-0.005352495439
-0.004753153298
-0.007174206531
-0.01197200156
-0.02014875737
-0.02059910255
-0.02116914626
-0.02179072208
-0.02284537288
-0.02438272272
-0.02633057558
-0.02850394054
-0.03061696327
-0.03229219102
-0.03308354246
-0.0325289428
-0.03027102198
-0.0261678292
-0.0205148626
-0.0141948492
-0.008683379068
-0.005719139095
-0.00721206858
-0.01245910761
-0.02684985266
-0.02715580351
-0.02769614741
-0.02841615278
-0.02978161571
-0.03188056929
-0.03464924978
-0.03787893091
-0.04122228032
-0.04419272055
-0.04617544073
-0.04646614763
-0.04445078363
-0.03964840609
-0.03211030058
-0.02268906966
-0.01325793899
-0.006478196959
-0.005801424468
-0.01075815927
-0.03432747949
-0.03441115346
-0.03478246996
-0.03539721727
-0.03688385034
-0.03940103903
-0.04290996571
-0.04718651772
-0.05182802346
-0.05624577385
-0.05966694277
-0.06117826314
-0.05976744707
-0.05464445948
-0.0454306488
-0.03269027202
-0.01844465317
-0.006238371748
-0.001667107328
-0.004867145651
-0.04260216732
-0.04227209019
-0.04218839244
-0.04228849809
-0.04350568727
-0.0461075249
-0.05008970396
-0.05520947238
-0.06100335971
-0.06678406671
-0.07162806029
-0.07440142084
-0.07382175797
-0.06866500529
-0.05806301211
-0.04205374191
-0.02243273431
-0.003250600683
0.007353035474
0.008346853477
-0.05200255004
-0.05075364998
-0.04967072259
-0.04857179273
-0.04891925156
-0.05111193242
-0.05516366816
-0.06078613933
-0.0674247508
-0.07427886899
-0.08027200462
-0.08406618244
-0.08412168771
-0.0788297451
-0.0668360941
-0.04751750995
-0.02212212241
0.005506723576
0.02471991751
0.03353139362
-0.0636484184
-0.06018222635
-0.0570908238
-0.05375809606
-0.05245901485
-0.05367300212
-0.05735678286
-0.06312936078
-0.07025306749
-0.07779137662
-0.08448347743
-0.08877762789
-0.08889137161
-0.08283396566
-0.06884633672
-0.04561723201
-0.01374852819
0.02441980629
0.05554240912
0.07735832758
-0.08017970482
-0.07106880609
-0.06411569127
-0.05716043924
-0.05342653536
-0.05320997489
-0.05625272658
-0.06190676615
-0.06925118983
-0.07710901479
-0.08400472399
-0.08814518189
-0.08747491572
-0.07965241891
-0.06247678135
-0.03404883714
0.005565305017
0.05859592491
0.105824309
0.1480688945
-0.1105021905
-0.08585009141
-0.07160283653
-0.05896837844
-0.05191076874
-0.04987978357
-0.05209850138
-0.05750354186
-0.06485354921
-0.0727021718
-0.07933398778
-0.08270831089
-0.08051568257
-0.06988405758
-0.04823066765
-0.01272191568
0.03823609924
0.1071321707
0.1779787189
0.2564764787
-0.1684333668
-0.09990519206
-0.07500626311
-0.05479643102
-0.04461745201
-0.04158319553
-0.04371466579
-0.04937741337
-0.05701217101
-0.06496536624
-0.07135648201
-0.07397557882
-0.07012561125
-0.05701084126
-0.0310269799
0.01192983407
0.07559923225
0.166403776
0.2761615045
0.4377039044
-0.3984246746
-0.1380965116
-0.07496868428
-0.04708738748
-0.0335484105
-0.03002847242
-0.03279953579
-0.03926115825
-0.04755400867
-0.05593410157
-0.06249524494
-0.06502501763
-0.06099140429
-0.04696667421
-0.01875489221
0.02993630112
0.1069557426
0.2334269927
0.4198798638
0.7800231259
)


// ************************************************************************* //
