/*--------------------------------*- C++ -*----------------------------------*\
  =========                 |
  \\      /  F ield         | OpenFOAM: The Open Source CFD Toolbox
   \\    /   O peration     | Website:  https://openfoam.org
    \\  /    A nd           | Version:  13
     \\/     M anipulation  |
\*---------------------------------------------------------------------------*/
FoamFile
{
    format      ascii;
    class       vectorField;
    location    "13.06";
    object      U_all;
}
// * * * * * * * * * * * * * * * * * * * * * * * * * * * * * * * * * * * * * //


400
(
(1.006847706e-05 -3.610794088e-05 0)
(-0.0006637119668 0.0004113988379 -1.537790146e-23)
(-0.002171729481 0.0009143314752 0)
(-0.004019715704 0.001303217045 0)
(-0.005928678373 0.001523511417 6.661989995e-25)
(-0.00770605295 0.001557980088 4.129614774e-24)
(-0.009217270385 0.001412977686 -6.708649981e-24)
(-0.01036213693 0.001111730725 8.248786959e-24)
(-0.0110611615 0.0006915454045 -2.159059911e-25)
(-0.01125453289 0.0002022606375 -4.096139244e-24)
(-0.01090707655 -0.0002976295071 5.922434369e-24)
(-0.01001968696 -0.0007424360447 -6.032942412e-23)
(-0.008642191176 -0.001069372588 -6.673305482e-23)
(-0.006881305019 -0.001227325988 -7.920097059e-23)
(-0.004904459701 -0.001188859689 4.670183492e-24)
(-0.002933189821 -0.0009610924001 -4.250817777e-24)
(-0.001218813671 -0.000593543449 -2.083329128e-22)
(-3.369041597e-05 -0.0001745188834 0)
(0.0005077008076 0.0001664591354 1.929207981e-25)
(0.0002200787637 0.0003022770811 -8.085334428e-24)
(-0.0002613510841 0.0008255109276 1.363473888e-25)
(-0.002681900535 0.003359163708 1.547606053e-23)
(-0.006849915774 0.005559556559 1.538035595e-25)
(-0.01185162615 0.006950573949 -8.281551575e-25)
(-0.01699064977 0.007491961489 1.126726492e-24)
(-0.02179209023 0.007236196865 1.248994719e-23)
(-0.02589730112 0.006274494967 1.984845749e-24)
(-0.02903331689 0.004722538555 -7.983615439e-24)
(-0.03098846143 0.002724303659 1.054978148e-23)
(-0.03161111082 0.000458924043 4.626832698e-24)
(-0.0308168078 -0.001859407623 -6.448672879e-24)
(-0.02861339322 -0.003984456816 2.889945928e-24)
(-0.02513034198 -0.005662148771 3.95200203e-23)
(-0.0206332287 -0.006660915868 -2.005034381e-24)
(-0.01553197866 -0.006814741453 3.863389601e-24)
(-0.01036234643 -0.006071216178 -1.017006953e-22)
(-0.005731925187 -0.004536385172 1.008800172e-22)
(-0.002246160923 -0.002513047727 -4.792535246e-25)
(-0.0001934952467 -0.0005177208223 4.913407599e-25)
(8.17013004e-05 0.0005977493585 0)
(-0.0004145791935 0.002913034381 -2.86597077e-25)
(-0.004604886815 0.008729832642 1.658654099e-23)
(-0.01126704802 0.01312528648 -8.330047531e-24)
(-0.01915049706 0.0156546343 -2.004432918e-25)
(-0.02722622428 0.01638914791 1.96915102e-25)
(-0.03480703641 0.01551683726 2.289865013e-26)
(-0.04135367401 0.01325930098 -1.796093332e-24)
(-0.04644460431 0.009855957525 -4.95711797e-25)
(-0.04974741957 0.00558126767 -1.104697953e-23)
(-0.05101805557 0.000767164862 0)
(-0.05011114634 -0.004179503416 0)
(-0.04701511993 -0.008793604066 2.733557816e-23)
(-0.04189426777 -0.01256914821 2.879645326e-23)
(-0.03511298441 -0.01501926091 -1.701180014e-24)
(-0.0272524168 -0.01575643694 5.050103327e-23)
(-0.01908979815 -0.0145928463 9.835881231e-23)
(-0.01152529764 -0.01164696217 4.47609758e-23)
(-0.005457452213 -0.0074390922 5.833697757e-25)
(-0.001454562909 -0.002950226117 1.756862249e-26)
(-9.07739355e-05 0.0002080639631 0)
(-0.0004968319325 0.005993357066 -4.155438692e-23)
(-0.006340134279 0.01622404019 -1.648574756e-23)
(-0.0153860137 0.02334699089 8.254697682e-24)
(-0.02603171886 0.02719765308 0)
(-0.03694381246 0.02807709574 0)
(-0.04726172561 0.0263708585 0)
(-0.05630097333 0.02246278818 -6.75672416e-26)
(-0.06351361794 0.01673135316 -1.637651879e-24)
(-0.06845087559 0.009589690093 0)
(-0.07075487905 0.001532389969 1.80026426e-24)
(-0.07018613198 -0.006828136351 2.911291444e-25)
(-0.06666003559 -0.01476746362 -2.919443264e-25)
(-0.06029800665 -0.0214691211 0)
(-0.05148690271 -0.02610575768 4.333586551e-23)
(-0.04091361031 -0.02796330447 -4.88034602e-23)
(-0.02956353221 -0.02661241092 -3.017725821e-23)
(-0.01864914365 -0.02210700132 -4.469843809e-23)
(-0.009449743331 -0.0151696268 7.725900463e-25)
(-0.002968424867 -0.007297262967 9.12365088e-23)
(-0.0002308104535 -0.0008834815106 0)
(-0.0005256768313 0.01000311707 4.175684859e-23)
(-0.007906094951 0.02571352093 4.815806646e-25)
(-0.01921315279 0.03609703121 -4.705822717e-25)
(-0.0325200854 0.04148307651 0)
(-0.04622613255 0.04252864303 7.626858249e-25)
(-0.05932782469 0.03987851747 -7.521112943e-25)
(-0.07102542812 0.03409858012 3.568925997e-23)
(-0.08066252087 0.02570168522 1.732531427e-23)
(-0.08767166286 0.01522315368 5.82331398e-24)
(-0.09156023537 0.003303103951 -1.802361674e-24)
(-0.09193742445 -0.00925141477 0)
(-0.08856290703 -0.02143600173 4.667689699e-25)
(-0.08142278863 -0.03207145499 1.125721862e-23)
(-0.07082388762 -0.03989083594 -4.563301021e-23)
(-0.05747652754 -0.04370821893 2.081173016e-24)
(-0.04254411673 -0.04267977995 4.745585528e-23)
(-0.02760581273 -0.03663626339 -4.709167854e-25)
(-0.01447674686 -0.02641497471 0)
(-0.004836484021 -0.01405004274 5.371423624e-23)
(-0.0003616345135 -0.002855783883 -2.484186627e-22)
(-0.0005219451253 0.01486072036 9.831000175e-23)
(-0.009292356445 0.03704675193 -4.920084644e-25)
(-0.02267785488 0.05123640023 0)
(-0.03849263247 0.05842751894 0)
(-0.05491788944 0.05975468566 -8.638144157e-23)
(-0.07084315722 0.05618043101 -8.375424703e-23)
(-0.08538560445 0.04846277439 -3.953067827e-23)
(-0.09780105241 0.0372261086 -1.439210765e-23)
(-0.1074050223 0.02308540884 -4.998519119e-24)
(-0.1135455942 0.006777085234 -7.852546805e-24)
(-0.1156263411 -0.01073220728 6.235819108e-24)
(-0.1131644239 -0.02817515609 8.118694216e-24)
(-0.105894066 -0.04397230006 -1.856314432e-23)
(-0.09390972099 -0.05630975213 1.559302618e-24)
(-0.07782219258 -0.06333856323 0)
(-0.05890183857 -0.06353596627 -1.862063546e-23)
(-0.03912851573 -0.05622553973 7.349702719e-26)
(-0.02103054979 -0.04215784003 0)
(-0.007280474565 -0.023895245 -1.446751834e-22)
(-0.0005177078828 -0.005918731423 5.885027887e-22)
(-0.0004952846743 0.02045809165 -9.76384856e-23)
(-0.01044433945 0.05000199353 2.815481962e-22)
(-0.02562397106 0.06852080628 1.516798683e-22)
(-0.04367852985 0.07783197681 3.586190446e-24)
(-0.0626292693 0.07965506031 -7.251434706e-23)
(-0.08130381598 0.07532154128 8.910682293e-23)
(-0.09877604685 0.06578314226 -3.534756271e-24)
(-0.1142452008 0.05173831847 -1.688742655e-24)
(-0.1269263822 0.03381663533 2.461177708e-24)
(-0.136002776 0.01277073877 7.082512385e-24)
(-0.1406368476 -0.01035267898 -6.153589537e-24)
(-0.1400293572 -0.03407935995 -9.007756474e-24)
(-0.1335449783 -0.05643322216 -3.224132002e-23)
(-0.1209063056 -0.07496797112 -3.13484826e-23)
(-0.1024406964 -0.08695875748 4.563691337e-25)
(-0.07936403559 -0.08984716874 0)
(-0.05399842066 -0.0819951927 0)
(-0.02972417464 -0.0636653818 -2.778201734e-24)
(-0.01060932598 -0.03782925169 2.839815306e-24)
(-0.0007299757959 -0.01047020547 1.018421622e-22)
(-0.000446296338 0.02663854652 0)
(-0.01127397358 0.06425240604 1.986221525e-22)
(-0.02783003429 0.08756087726 8.891064846e-23)
(-0.04768423552 0.09932430034 0)
(-0.06876362155 0.101936318 1.554017713e-22)
(-0.08988451485 0.09714201066 0)
(-0.110125693 0.08608528707 -1.409233154e-22)
(-0.1286764431 0.06949533518 6.413878718e-24)
(-0.1446936061 0.04793802839 0)
(-0.1572264295 0.02207746776 0)
(-0.165205086 -0.007078956456 -1.337900845e-24)
(-0.1674843026 -0.03795759409 -8.947765237e-25)
(-0.1629732762 -0.06826628095 1.443339611e-22)
(-0.1508618699 -0.0949107766 -4.653635707e-23)
(-0.1309524088 -0.1141150581 -2.420177529e-24)
(-0.104117507 -0.1218784214 1.40279957e-24)
(-0.07278399712 -0.1149533415 -1.424927778e-24)
(-0.04117266319 -0.09238967779 0)
(-0.01518445882 -0.05716034067 3.125644325e-24)
(-0.001038003884 -0.01708451673 -9.920151713e-22)
(-0.0003755510964 0.03319111106 0)
(-0.01169425277 0.07934829603 -1.121629833e-22)
(-0.02906250617 0.1077930748 -6.147113007e-22)
(-0.05006647448 0.1223061402 -3.725602338e-22)
(-0.07260413572 0.1260259138 0)
(-0.09553116822 0.1211535943 4.076444892e-22)
(-0.1179851134 0.1090302488 1.243997178e-22)
(-0.1392079083 0.09038107042 -5.49940405e-24)
(-0.1583714716 0.06563452819 5.472185191e-24)
(-0.1744715861 0.03525524071 0)
(-0.1862759192 6.631869368e-05 2.866549902e-23)
(-0.1923490545 -0.03843805632 4.59620219e-24)
(-0.1911419395 -0.07781437436 -1.048212702e-22)
(-0.1811954468 -0.11443887 7.738844598e-23)
(-0.161532759 -0.1434430178 -2.356038663e-22)
(-0.1322728165 -0.1590362565 0)
(-0.09545859051 -0.1555714052 0)
(-0.05582174248 -0.1297213073 0)
(-0.02139935513 -0.08346355132 0)
(-0.001492926059 -0.02655328447 5.463770867e-22)
(-0.0002914353176 0.03986441505 0)
(-0.01166551156 0.09473688366 -3.468881959e-22)
(-0.02916067891 0.1284831023 8.870115378e-22)
(-0.05045371286 0.1459276302 3.588505172e-22)
(-0.07346938321 0.1510099982 0)
(-0.09715013495 0.1464340926 -3.822390165e-22)
(-0.1207478784 0.1337601559 -3.139161063e-23)
(-0.14363099 0.1136998023 3.296245622e-22)
(-0.1650859621 0.08649743381 1.748915983e-22)
(-0.1841830226 0.05232677671 -4.011887659e-23)
(-0.1996872016 0.01167914766 1.645895003e-23)
(-0.2100199841 -0.03424797742 -8.13698169e-24)
(-0.2132864134 -0.08312496723 3.325937444e-22)
(-0.2074005722 -0.1310975163 0)
(-0.1904270832 -0.1724064217 2.357176781e-22)
(-0.1612797325 -0.1993598855 5.584487383e-24)
(-0.1208817055 -0.2031632 -5.667768914e-24)
(-0.07366106287 -0.1765131655 1.488758412e-22)
(-0.02963342741 -0.1184138373 -5.259615618e-24)
(-0.002171095089 -0.03990757136 0)
(-0.0002186377785 0.0464132056 0)
(-0.01125536444 0.109827946 0)
(-0.02814776518 0.1487755925 -4.988032535e-22)
(-0.04870850353 0.169107964 -1.867755589e-23)
(-0.07093126691 0.175621382 2.02097701e-23)
(-0.09389402054 0.1715795644 -1.997114932e-23)
(-0.1170202676 0.1588077246 -2.293556184e-23)
(-0.1398830369 0.1380314342 -2.996058284e-22)
(-0.1619963231 0.1093113243 6.666044508e-23)
(-0.182663973 0.07248756479 4.45894963e-23)
(-0.2008569622 0.02760810776 -4.52109371e-23)
(-0.2151009278 -0.02463081864 0)
(-0.2234211589 -0.08236125309 -7.646731475e-23)
(-0.2233088912 -0.1419686369 0)
(-0.2118895705 -0.1973248856 -3.693135314e-22)
(-0.1865477265 -0.2391654875 5.163835051e-22)
(-0.1462532766 -0.2551791019 0)
(-0.09379555901 -0.2323385667 -1.436073712e-22)
(-0.0401410757 -0.163421439 1.877743748e-22)
(-0.003192108878 -0.05841843442 -3.351994505e-22)
(-0.000210909972 0.05268565954 0)
(-0.0107136361 0.1241135088 9.128690006e-22)
(-0.02635813817 0.1677959936 -2.425452588e-23)
(-0.04510699862 0.1906104542 9.136035768e-22)
(-0.06505666958 0.1982961029 -2.494635297e-23)
(-0.08548987468 0.1947495992 2.81559787e-23)
(-0.1060698448 0.1821275214 -2.78989608e-23)
(-0.126652656 0.1612324982 -1.646149096e-23)
(-0.1470847726 0.1319948438 -5.213917046e-22)
(-0.1670547375 0.09394866825 -8.82684946e-24)
(-0.1859554154 0.04666590671 9.575178703e-24)
(-0.2027063124 -0.00980327505 3.28835849e-22)
(-0.2156251282 -0.07442108969 -5.770770568e-22)
(-0.2221863673 -0.1443405943 0)
(-0.2189033093 -0.2138949729 8.79831556e-22)
(-0.2016503724 -0.2731551699 -4.864651368e-22)
(-0.1668229152 -0.3067134045 -1.548021526e-23)
(-0.1139487554 -0.2945792312 0)
(-0.05282679264 -0.2189836131 -1.831386014e-22)
(-0.004740611425 -0.08354016622 3.302087116e-22)
(-0.0003753751244 0.05876587648 1.542043032e-23)
(-0.01057083228 0.1373443075 -8.712500338e-22)
(-0.02456804761 0.1847982607 -1.15103071e-21)
(-0.04049445622 0.209164102 -8.575231111e-22)
(-0.05659778793 0.2172956162 0)
(-0.0724946141 0.2138128491 3.489079158e-23)
(-0.08818860572 0.201271539 -7.242421033e-23)
(-0.1039005431 0.1806266271 5.824705401e-23)
(-0.1198868498 0.1517630706 2.996849029e-22)
(-0.1363173781 0.1139982062 -1.119949567e-23)
(-0.1531550794 0.06648338776 0)
(-0.1700001026 0.008590787726 -3.576654631e-22)
(-0.1857984607 -0.05963922647 7.468036024e-22)
(-0.1985112507 -0.1366771652 8.783525218e-22)
(-0.2047318217 -0.2182667095 -5.251565999e-22)
(-0.1993596671 -0.2952559841 5.12633964e-22)
(-0.1761992248 -0.3506502436 1.057845468e-23)
(-0.1301236014 -0.357672551 -1.074833186e-23)
(-0.06686839496 -0.2837267053 -8.720018016e-23)
(-0.007076862717 -0.1167375757 0)
(-0.0009218104803 0.06519375703 -1.901822916e-23)
(-0.01177977093 0.1497361599 -1.321022111e-21)
(-0.0241130255 0.1992958068 1.088565038e-21)
(-0.03635694471 0.2235565648 6.704041347e-22)
(-0.04702367397 0.2308199914 5.985510686e-22)
(-0.05631289158 0.2265230727 6.609075794e-22)
(-0.06473002351 0.2136479014 -4.431270709e-23)
(-0.07295605534 0.1933439426 -3.442085924e-22)
(-0.08170029537 0.1655185719 2.140245778e-22)
(-0.09163459432 0.1293871752 0)
(-0.1033317857 0.08380939788 0)
(-0.1171320247 0.02759413756 2.643942222e-22)
(-0.1328970301 -0.04015594511 8.232470102e-23)
(-0.1496022836 -0.1195127039 -2.797202739e-22)
(-0.1647107789 -0.2084070869 -5.386605024e-23)
(-0.1732419273 -0.3001485524 1.308887412e-22)
(-0.167334548 -0.3787426208 -3.374325497e-22)
(-0.1366790877 -0.413034968 -1.809783369e-23)
(-0.08021427155 -0.3532906736 8.708100698e-23)
(-0.01050569981 -0.1591509365 -6.06404345e-22)
(-0.002272765951 0.07334629216 0)
(-0.01592660984 0.1622357097 2.136905654e-21)
(-0.02692478418 0.2111714699 0)
(-0.03465351487 0.2326786729 -1.3463003e-21)
(-0.03816583835 0.2370721795 6.220669031e-23)
(-0.03868827493 0.2306514524 -6.160446827e-22)
(-0.03746078581 0.2167446479 -4.733135878e-22)
(-0.0357334924 0.1966614706 8.259101765e-22)
(-0.03467588072 0.1702934895 -1.875133361e-22)
(-0.03539943057 0.1368567953 0)
(-0.03900867668 0.09506967113 0)
(-0.04651483252 0.04340713821 2.429966278e-23)
(-0.05872856439 -0.0197278133 -5.984348746e-22)
(-0.0759022321 -0.09579343207 -4.293496402e-22)
(-0.09711922738 -0.1851555694 4.627813621e-22)
(-0.118895742 -0.2849645151 -6.459963913e-22)
(-0.1336778803 -0.3834285338 8.994289041e-23)
(-0.1267746493 -0.450003241 3.163150827e-23)
(-0.08907407765 -0.4194275002 5.669806776e-22)
(-0.01527384979 -0.2109357982 6.052616056e-22)
(-0.00519146854 0.08590865114 0)
(-0.02538183223 0.1763594002 1.468572765e-22)
(-0.03512577577 0.2201537989 -4.901473795e-23)
(-0.03686799281 0.2349464721 7.615244952e-22)
(-0.0308163346 0.2337941832 -6.97798286e-22)
(-0.01993715158 0.2236855009 4.726539333e-23)
(-0.006461315146 0.2080052018 -1.017461369e-22)
(0.007663459721 0.187936628 -3.374167441e-22)
(0.02084601387 0.1633662707 2.054663293e-22)
(0.0316897624 0.1334468344 0)
(0.03868274439 0.09687827954 0)
(0.04032462085 0.0520499586 -2.893124436e-22)
(0.03499868082 -0.002921005815 0)
(0.02126553564 -0.07025330425 -5.503769208e-22)
(-0.00189677437 -0.1522737674 -1.440864824e-23)
(-0.03363620466 -0.2503282979 2.554571511e-23)
(-0.06951753471 -0.359676683 2.19032132e-22)
(-0.09255663573 -0.4572929273 4.828996264e-24)
(-0.08729368249 -0.4695329716 -5.79978349e-22)
(-0.02104311592 -0.2697145946 0)
(-0.0111219187 0.1085909352 0)
(-0.04259234278 0.1945878427 -8.823588229e-22)
(-0.0482109265 0.2255557728 -5.401111949e-22)
(-0.03962153536 0.227856567 4.535466625e-22)
(-0.0193680626 0.2178506492 -1.721382052e-24)
(0.006935007036 0.2024774398 -4.54876823e-23)
(0.03585844439 0.1845085088 5.675458762e-22)
(0.06495141111 0.1645541229 -2.756642775e-23)
(0.0923696964 0.1422824827 -2.06147756e-22)
(0.1165099405 0.1167125179 3.131845582e-23)
(0.1357161402 0.08658822776 -3.416184518e-23)
(0.1482038625 0.05041295972 -3.682665752e-23)
(0.1518485397 0.006418944453 3.200085517e-22)
(0.144347508 -0.04771030037 6.110609227e-22)
(0.1230069458 -0.1150898303 -5.095689018e-22)
(0.08591602679 -0.2002499687 -1.617635287e-22)
(0.03162254445 -0.3066495566 1.527016575e-22)
(-0.02388478885 -0.4238518196 7.2928793e-23)
(-0.06503019783 -0.4870116657 1.912666348e-21)
(-0.02511436914 -0.3290375556 2.954286265e-21)
(-0.02004303174 0.1461073327 -4.384065643e-23)
(-0.06421162733 0.2112738807 4.411200097e-23)
(-0.0508548744 0.2176146364 9.98794203e-22)
(-0.01962633547 0.2012739855 -7.94251233e-24)
(0.02371739607 0.1806766198 0)
(0.07098252227 0.1604697433 4.352849732e-23)
(0.1184135834 0.1414722435 -2.266963845e-22)
(0.1637573061 0.1232037505 -8.998758654e-23)
(0.2054800541 0.1047773345 3.668161808e-23)
(0.2422343428 0.08511386007 -1.696004184e-23)
(0.2725379215 0.06306763743 3.420226325e-23)
(0.2946444258 0.03741200493 -6.578192091e-23)
(0.3061662981 0.006703475658 -9.283830372e-23)
(0.3045262319 -0.0307156738 1.51582786e-22)
(0.2860292937 -0.07772834109 0)
(0.2467666808 -0.1398369829 1.507674802e-22)
(0.1808570962 -0.2265882425 2.558586903e-22)
(0.09586874303 -0.3443369496 0)
(-0.006787199571 -0.4551655212 -3.674427152e-21)
(-0.01923876748 -0.3777025038 -2.891927848e-21)
(-0.02590882553 0.227719259 -9.510774676e-22)
(-0.03996625934 0.2238467727 -1.387855353e-22)
(0.0365424726 0.1810365029 -2.332223929e-22)
(0.1089549012 0.1450368921 -1.191498102e-22)
(0.1815229029 0.1171447434 -4.292624304e-23)
(0.2487054394 0.09617327674 9.765286853e-23)
(0.3096369399 0.07993510945 -1.404934029e-22)
(0.3641566961 0.06650689942 1.293113879e-22)
(0.4121247979 0.05446877145 -8.590951654e-23)
(0.4531237036 0.04272454238 1.131228022e-25)
(0.4863168445 0.03037116992 1.523922548e-23)
(0.5103284345 0.01659927274 7.979654668e-23)
(0.5233156842 0.0006113132306 -1.808379199e-22)
(0.5229179806 -0.01856077902 -1.615921892e-22)
(0.5050397253 -0.04280569901 -4.262509009e-23)
(0.4657358865 -0.07629507448 0)
(0.3951713271 -0.1285973106 -1.843075231e-22)
(0.2915329797 -0.2208432602 8.145073526e-22)
(0.1197007361 -0.3524985569 1.63103772e-21)
(0.02669415398 -0.3775430882 2.172362635e-21)
(0.2143005709 0.1347556521 9.861204101e-22)
(0.2776658011 0.09871906711 0)
(0.4316979408 0.0581107323 -2.592569737e-22)
(0.5304910907 0.03846045937 -1.740727125e-22)
(0.6016674406 0.02622535962 0)
(0.657034651 0.01830801561 -5.99916674e-23)
(0.7013832446 0.01312649794 6.360917542e-23)
(0.7374264283 0.009536758137 -1.793743601e-23)
(0.7667378539 0.006805081274 2.875814407e-23)
(0.7900117636 0.004471326429 2.307205328e-23)
(0.8072760131 0.002232671222 0)
(0.8181161954 -0.0001357450238 -2.866289903e-23)
(0.8215458895 -0.002708539777 0)
(0.8161789627 -0.005701172422 2.735250949e-23)
(0.7991074021 -0.009604595333 1.424178705e-23)
(0.7679958058 -0.01500066391 -5.795026289e-23)
(0.7106616752 -0.02502812823 -2.533609255e-22)
(0.6235222928 -0.04204627892 -6.915212123e-22)
(0.4230086326 -0.09183327692 0)
(0.2705663826 -0.1524038133 -2.119197587e-21)
)


// ************************************************************************* //
