/*--------------------------------*- C++ -*----------------------------------*\
  =========                 |
  \\      /  F ield         | OpenFOAM: The Open Source CFD Toolbox
   \\    /   O peration     | Website:  https://openfoam.org
    \\  /    A nd           | Version:  13
     \\/     M anipulation  |
\*---------------------------------------------------------------------------*/
FoamFile
{
    format      ascii;
    class       scalarField;
    location    "38.62";
    object      p_all;
}
// * * * * * * * * * * * * * * * * * * * * * * * * * * * * * * * * * * * * * //


400
(
8.144589139e-08
-0.0005474130187
-0.0008894687192
-0.00101697395
-0.0009381097465
-0.000685225411
-0.0002959190769
0.0001937908255
0.0007473826128
0.001324402902
0.001879240306
0.002359033185
0.002708366395
0.002874122787
0.002814762672
0.002512304067
0.001987235427
0.001296704848
0.0006377883667
4.189663447e-05
0.0005882429431
6.948538776e-06
-0.0003567822433
-0.0004991309664
-0.000468508646
-0.0002914502113
2.675903356e-06
0.0003845576024
0.0008227483433
0.001279966004
0.001716386019
0.002080879154
0.002323092557
0.002395658746
0.002264688696
0.001921392307
0.001392516713
0.0007431317857
0.0001454881373
-0.0005171821499
0.0009524947662
0.0003080803679
-9.315547177e-05
-0.0002394756856
-0.0002333722298
-0.000104909539
0.0001219022498
0.0004257940641
0.000783024606
0.001161558012
0.001529581733
0.001832962939
0.002021786727
0.002047348463
0.001874517761
0.001493468466
0.0009281706077
0.0002351866737
-0.0004632769706
-0.001300233831
0.0009762121102
0.0002580199952
-0.000192232447
-0.0003445089913
-0.0003537526563
-0.0002567755939
-7.42134829e-05
0.0001813612382
0.0004964256699
0.0008507437094
0.001203104006
0.001510583098
0.001712374391
0.001747951512
0.001568455329
0.001150502696
0.0005059134878
-0.0003185725515
-0.001233895659
-0.002384680975
0.0004805621395
-0.0002849377662
-0.0007638669975
-0.0009155774226
-0.0009365912716
-0.0008681488687
-0.0007252382977
-0.0005083166749
-0.000217089147
0.0001392102757
0.0005301506433
0.0009074588112
0.001199903264
0.001326591409
0.001211106911
0.0008002549655
7.999161772e-05
-0.0009176127287
-0.002127589437
-0.003656077765
-0.0006862975745
-0.00146706737
-0.001956126011
-0.002107200614
-0.002149992491
-0.002126640034
-0.002042247358
-0.001879617436
-0.001617505205
-0.001245479955
-0.0007790736024
-0.0002628177532
0.0002206677721
0.0005615472719
0.0006379001252
0.0003415872926
-0.000392985619
-0.001564032389
-0.003134813919
-0.005142044795
-0.00266178436
-0.003423479353
-0.003915332195
-0.004080714811
-0.004178097298
-0.004247162717
-0.004278183436
-0.004229122931
-0.00404751383
-0.003689559996
-0.003140711487
-0.002426719285
-0.001633476714
-0.0009034026396
-0.0004247867748
-0.0003986513897
-0.0009882059998
-0.002260554193
-0.004232714452
-0.006828291911
-0.005554978852
-0.006269906804
-0.006768181843
-0.006982119004
-0.007195508665
-0.007443414758
-0.007697129706
-0.007882199619
-0.007902165674
-0.007660605917
-0.007087339771
-0.006159487345
-0.004943742799
-0.003604863684
-0.002413928378
-0.001714507348
-0.001843195421
-0.003015013155
-0.005368449771
-0.008662246337
-0.009435189147
-0.01008153581
-0.01059840726
-0.01091064201
-0.01132603876
-0.01187592197
-0.01251130303
-0.01311968384
-0.01354784815
-0.01362342078
-0.01318254414
-0.01212119019
-0.01042809799
-0.008256631512
-0.005956402609
-0.004061976989
-0.003190240768
-0.003843142564
-0.006426540186
-0.01049173106
-0.01431695799
-0.01487595137
-0.01542294871
-0.01588219624
-0.0165900326
-0.01758016191
-0.01878702254
-0.02005915735
-0.02117764957
-0.0218737078
-0.02185748891
-0.02087237351
-0.01877203369
-0.01562020811
-0.01179518069
-0.008037441425
-0.005359998302
-0.004760256721
-0.007181278767
-0.01197936187
-0.02015447457
-0.02060469708
-0.02117489027
-0.02179689957
-0.02285225828
-0.0243905164
-0.02633938596
-0.02851377396
-0.03062771882
-0.03230365677
-0.03309541569
-0.03254086562
-0.03028264441
-0.02617884446
-0.02052503979
-0.01420406825
-0.008691676053
-0.005726745335
-0.007219392121
-0.01246654002
-0.02685650528
-0.02716226143
-0.02770269729
-0.02842311432
-0.02978931745
-0.03188925938
-0.03465904809
-0.03788981354
-0.04123410137
-0.04420522903
-0.04618830401
-0.04647895236
-0.04446325278
-0.03966020108
-0.03212118712
-0.02269891009
-0.01326671587
-0.006486074813
-0.005808766594
-0.01076536242
-0.03433486087
-0.0344182743
-0.034789614
-0.03540469522
-0.03689200642
-0.0394101619
-0.0429202096
-0.04719784802
-0.05184024471
-0.05625856155
-0.05967991906
-0.06119108203
-0.05977970523
-0.054655951
-0.04544122744
-0.03269986788
-0.01845324644
-0.006246052538
-0.001674095762
-0.004873729967
-0.04260999699
-0.04227957533
-0.04219579971
-0.04229611901
-0.04351386311
-0.04611655981
-0.05009977954
-0.05522055438
-0.06101524051
-0.06679635505
-0.07164030165
-0.07441320175
-0.07383276093
-0.06867507954
-0.05807214161
-0.04206201354
-0.02244022179
-0.003257388106
0.007346906731
0.008341303081
-0.05201050178
-0.05076115935
-0.04967798743
-0.04857908803
-0.04892695198
-0.05112038038
-0.05517307909
-0.06079643109
-0.06743574281
-0.07429011393
-0.08028299485
-0.08407644947
-0.08413088188
-0.07883776755
-0.06684302969
-0.04752363763
-0.02212766518
0.005501599285
0.02471520251
0.03352724284
-0.0636561043
-0.06018940041
-0.05709754659
-0.05376460062
-0.05246574681
-0.05368041895
-0.05736526778
-0.06313846918
-0.07026294354
-0.07780140893
-0.08449310079
-0.0887863153
-0.08889863464
-0.08283990864
-0.0688509921
-0.04562101363
-0.01375169073
0.02441674282
0.05553949668
0.07735573694
-0.08018666396
-0.0710752179
-0.06412147074
-0.05716577928
-0.05343194657
-0.05321604071
-0.05625980627
-0.06191483655
-0.06925998468
-0.07711797432
-0.08401323828
-0.08815269516
-0.08748112585
-0.07965684363
-0.06247968889
-0.03405060069
0.005564790184
0.05859397057
0.1058230103
0.1480677177
-0.1105080514
-0.08585535785
-0.07160731979
-0.05897235595
-0.05191476881
-0.04988453071
-0.0521043553
-0.0575105214
-0.06486135283
-0.07271023698
-0.07934165503
-0.08271494983
-0.08052067236
-0.06988757171
-0.04823263454
-0.01272266727
0.03823611195
0.1071320812
0.1779786444
0.2564764827
-0.1684382265
-0.09990952105
-0.07500961331
-0.05479923661
-0.0446203869
-0.04158693312
-0.04371958024
-0.04938352474
-0.0570191919
-0.06497276684
-0.07136363558
-0.07398190643
-0.0701307001
-0.0570141746
-0.03102877291
0.01192927054
0.0755994621
0.1664042309
0.27616201
0.4377042731
-0.3984295056
-0.1381006676
-0.07497177408
-0.04708978608
-0.03355086148
-0.03003167811
-0.03280389908
-0.03926672731
-0.04756052953
-0.05594108926
-0.06250210631
-0.0650311729
-0.06099640685
-0.04697019795
-0.01875698646
0.02993539727
0.1069556545
0.2334272445
0.4198802
0.7800233818
)


// ************************************************************************* //
