/*--------------------------------*- C++ -*----------------------------------*\
  =========                 |
  \\      /  F ield         | OpenFOAM: The Open Source CFD Toolbox
   \\    /   O peration     | Website:  https://openfoam.org
    \\  /    A nd           | Version:  13
     \\/     M anipulation  |
\*---------------------------------------------------------------------------*/
FoamFile
{
    format      ascii;
    class       scalarField;
    location    "4.71";
    object      p_all;
}
// * * * * * * * * * * * * * * * * * * * * * * * * * * * * * * * * * * * * * //


400
(
2.874080148e-08
-0.0003918761829
-0.0005927721624
-0.0005897681942
-0.0004006380038
-5.550348629e-05
0.0004123412597
0.0009717467886
0.001592412465
0.00224238094
0.002885855759
0.003482128269
0.003986292405
0.004352399877
0.004539161369
0.004518585328
0.004287247681
0.003878693322
0.003405731678
0.002919647579
0.0004220929858
5.313757406e-06
-0.0002157070603
-0.0002274040541
-7.356521894e-05
0.0002203903805
0.0006265296848
0.00111733449
0.001664672709
0.002237839541
0.002802027798
0.003317989588
0.003742983906
0.004034784304
0.004157765261
0.004091504316
0.003840490626
0.003442082562
0.00299576184
0.002476705746
0.0006347577234
0.0001781518648
-6.859658709e-05
-8.144291845e-05
5.956735351e-05
0.0003275098326
0.0006978388903
0.001147372785
0.001651831117
0.002183174933
0.002708062449
0.003187183912
0.003576800819
0.003833417753
0.003920601598
0.00381787784
0.003529026365
0.003086652283
0.00256096028
0.001887143321
0.0005543399796
4.986898445e-05
-0.0002274307531
-0.0002373347215
-9.426870716e-05
0.0001701168344
0.00053222836
0.0009729467487
0.001472680703
0.002007000519
0.002543683421
0.003041533611
0.003451118053
0.003720553396
0.003803415308
0.003669546
0.003314724975
0.002765647463
0.002073380462
0.001179477641
7.357153499e-05
-0.0004647240049
-0.000757301739
-0.0007537017897
-0.0005961457899
-0.0003205401957
5.09931215e-05
0.0005047543354
0.001027797353
0.001601324378
0.002195150253
0.00276607042
0.003255427885
0.00359653679
0.003723448283
0.003585284116
0.00316061399
0.002467501285
0.001542763983
0.0003539025099
-0.0009049802362
-0.001460363966
-0.00175708726
-0.001733336851
-0.001556658824
-0.001266069792
-0.0008805117547
-0.0004056780885
0.000155697795
0.0007946303308
0.001486604144
0.002189842871
0.002834712257
0.003333761497
0.00358921232
0.003512578625
0.003048160745
0.002195119564
0.0009715318492
-0.0006053586849
-0.002474873451
-0.003034197056
-0.003331546705
-0.003291117199
-0.003105991404
-0.002817269314
-0.002438463519
-0.00196347841
-0.001379068253
-0.000676676503
0.0001334874975
0.001024730691
0.001916747078
0.002699057096
0.003227302221
0.003348541356
0.002940184944
0.001954975738
0.000370383943
-0.001714219296
-0.00472702152
-0.005282756913
-0.005585577634
-0.005546793159
-0.005386375294
-0.005147315053
-0.004835812966
-0.004429621661
-0.003891576134
-0.003182099487
-0.002273176799
-0.00117670099
5.375507393e-05
0.001286278735
0.002316098813
0.0028869734
0.002751047558
0.001754276954
-0.0002219035307
-0.002952702338
-0.007744653199
-0.008292993176
-0.008613892546
-0.008610416071
-0.008532884253
-0.008428243456
-0.008295513634
-0.008093115647
-0.007751141884
-0.007182409319
-0.006297696523
-0.005042330569
-0.003419133087
-0.001547591212
0.0003084576346
0.001745072888
0.002297389476
0.00158959468
-0.0007143390225
-0.004219609366
-0.01159413489
-0.01213203285
-0.01248642401
-0.01255941333
-0.01263997532
-0.0127851564
-0.01299098385
-0.01319713512
-0.01329467044
-0.01313112085
-0.01252323967
-0.01129201406
-0.009327791134
-0.006667794879
-0.003596580743
-0.000692170528
0.001246725228
0.001431714679
-0.0009281163904
-0.005258041545
-0.01631888254
-0.01683849883
-0.01723254493
-0.01740979907
-0.01771581019
-0.01822968575
-0.01895421505
-0.01981684522
-0.0206696006
-0.02128186684
-0.02134204453
-0.02048574383
-0.01841450596
-0.01495560059
-0.01031632886
-0.005213077549
-0.0008760452089
0.001234502639
-0.0005361818056
-0.005527035656
-0.02194557333
-0.02242202602
-0.02282993417
-0.02308776517
-0.02363307644
-0.0245856777
-0.02596989744
-0.02771283689
-0.02963500894
-0.03142516338
-0.03262511853
-0.03265256518
-0.03087146046
-0.02682388871
-0.02045101103
-0.01246004249
-0.004502785326
0.001039961835
0.001049697667
-0.003988352182
-0.0285174426
-0.02887872868
-0.02920345584
-0.02940888767
-0.03009072204
-0.03143377978
-0.03349950276
-0.03622629946
-0.03941332797
-0.04267567894
-0.04540635366
-0.04677247747
-0.04578896432
-0.0415620418
-0.03358033512
-0.02228372568
-0.009539667344
0.001281948548
0.004895615216
0.001210528928
-0.03618285509
-0.03623559734
-0.03624338903
-0.03607792541
-0.03660988293
-0.03811433086
-0.04069805681
-0.04431228783
-0.04873688004
-0.0535188504
-0.05791395646
-0.06085152796
-0.06098973526
-0.05696908937
-0.04767988154
-0.03301659082
-0.0146646828
0.003319904437
0.01293166955
0.01311917989
-0.04538327018
-0.04461378613
-0.04381278575
-0.0426816348
-0.04255066251
-0.04379231187
-0.04654392521
-0.05074737752
-0.05614339243
-0.06219757887
-0.0680333335
-0.07236124926
-0.07352277841
-0.06975041667
-0.05925972051
-0.04126362061
-0.01683829698
0.0100268167
0.02852203089
0.03642014327
-0.05733220024
-0.05442822092
-0.0518492466
-0.04877500501
-0.04723440999
-0.04764033396
-0.05009841403
-0.05448004284
-0.06043360104
-0.06729784926
-0.07407173931
-0.07919018557
-0.08068120964
-0.07679123188
-0.06450654253
-0.04274447389
-0.01167354114
0.02604563193
0.0569351848
0.07801041015
-0.07472508147
-0.06624046915
-0.06004953573
-0.05363715463
-0.04984215665
-0.04887215701
-0.05065195998
-0.05487114462
-0.06100576203
-0.06821930255
-0.07526932649
-0.08041946174
-0.08146193207
-0.07582440387
-0.06074729763
-0.03400905121
0.004971181345
0.05688526261
0.1046132704
0.1465079321
-0.1063478341
-0.08235389066
-0.06910064662
-0.05719730753
-0.05011992733
-0.04728045248
-0.04811877918
-0.05196620411
-0.05800325133
-0.06514042743
-0.07189291371
-0.07627412595
-0.0758159979
-0.06743431906
-0.04804037806
-0.01442527874
0.03537567114
0.1037447899
0.1748984184
0.2532169677
-0.1654691571
-0.0974450319
-0.07378807168
-0.05433559
-0.04415163256
-0.04026373617
-0.0409560751
-0.04499952284
-0.05125222438
-0.05840779386
-0.06481135351
-0.06831089099
-0.06614570018
-0.05502705953
-0.0312144423
0.009845952436
0.07222807501
0.1624110508
0.272151633
0.4338829656
-0.3954954011
-0.1358970312
-0.07403508262
-0.04706242255
-0.03360495833
-0.0293055623
-0.03070184252
-0.03558069827
-0.04247964198
-0.04998683836
-0.05641166725
-0.05960103041
-0.05690700217
-0.04478763005
-0.01859930847
0.02828751426
0.104007934
0.2297983923
0.4161293824
0.7763889807
)


// ************************************************************************* //
