/*--------------------------------*- C++ -*----------------------------------*\
  =========                 |
  \\      /  F ield         | OpenFOAM: The Open Source CFD Toolbox
   \\    /   O peration     | Website:  https://openfoam.org
    \\  /    A nd           | Version:  13
     \\/     M anipulation  |
\*---------------------------------------------------------------------------*/
FoamFile
{
    format      ascii;
    class       scalarField;
    location    "18.94";
    object      p_all;
}
// * * * * * * * * * * * * * * * * * * * * * * * * * * * * * * * * * * * * * //


400
(
-6.31168605e-07
-0.0005482872915
-0.0008901661489
-0.001017423775
-0.0009383375226
-0.0006853280583
-0.000295966397
0.000193795792
0.0007474787444
0.001324618287
0.001879591457
0.00235956521
0.002709176782
0.002875362706
0.002816599309
0.002514861922
0.001990543796
0.001300737132
0.0006422691676
4.668566434e-05
0.000586288388
5.354777713e-06
-0.0003580728852
-0.0005001053361
-0.0004691768759
-0.0002918892366
2.398188044e-06
0.0003844188472
0.0008227810417
0.00128022317
0.001716923119
0.002081751464
0.002324366562
0.002397426198
0.002267055573
0.001924442056
0.001396266259
0.0007475169308
0.000150309886
-0.0005120997065
0.0009497906413
0.0003059220937
-9.488265137e-05
-0.0002408640291
-0.0002344305213
-0.0001056291013
0.000121526773
0.0004257404001
0.0007832745113
0.001162173324
0.001530444145
0.001834198608
0.002023485721
0.002049598568
0.001877393229
0.001497013811
0.0009323834159
0.0002400062278
-0.0004580282122
-0.001294578597
0.000973083909
0.0002555704282
-0.0001941603505
-0.000346072195
-0.0003549470295
-0.0002575417694
-7.449099709e-05
0.0001815821976
0.0004970990033
0.0008517542668
0.001204548988
0.001512429002
0.001714679332
0.001750797922
0.00157191881
0.001154633725
0.0005107265733
-0.0003131043143
-0.001227881566
-0.002377989584
0.000477482476
-0.0002873287257
-0.0007657053489
-0.0009169749452
-0.0009374885028
-0.0008684621238
-0.0007249035316
-0.0005073185135
-0.000215472244
0.0001413461241
0.0005327344614
0.0009104347718
0.001203272529
0.001330398718
0.001215424906
0.0008051657846
8.556602801e-05
-0.0009113331948
-0.002120626395
-0.003648269654
-0.0006887311109
-0.001468897711
-0.001957420484
-0.002107962034
-0.002150063119
-0.002125885049
-0.002040602005
-0.001877090735
-0.00161417653
-0.001241488512
-0.0007745712669
-0.0002579484666
0.0002258026341
0.0005669136198
0.0006435408667
0.0003476170295
-0.0003864111815
-0.001556759374
-0.003126734027
-0.005132924605
-0.002662912902
-0.003424116603
-0.003915448123
-0.004080195049
-0.004176669149
-0.004244605339
-0.004274394611
-0.004224123969
-0.004041436923
-0.003682625393
-0.003133195061
-0.002418898429
-0.001625600641
-0.0008956280416
-0.0004171394405
-0.0003910036339
-0.0009803051416
-0.002252090942
-0.004223396951
-0.006817785951
-0.005554144636
-0.006268714036
-0.006766458331
-0.006979621691
-0.007191844389
-0.007438259963
-0.007690317162
-0.007873738569
-0.007892239004
-0.007649543778
-0.007075597357
-0.006147492208
-0.004931962389
-0.003593636697
-0.002403404999
-0.001704592475
-0.001833554061
-0.003005149215
-0.005357823333
-0.008650372546
-0.00943179903
-0.01007797585
-0.01059430446
-0.01090558772
-0.01131950577
-0.01186747525
-0.01250070181
-0.01310691765
-0.0135331481
-0.01360722711
-0.01316543652
-0.01210391794
-0.0104113267
-0.008240928166
-0.00594210361
-0.00404908923
-0.003178402107
-0.003831678878
-0.006414612905
-0.0104786395
-0.01431060599
-0.01486967383
-0.01541614727
-0.01587426331
-0.0165802913
-0.01756806162
-0.01877225326
-0.02004169888
-0.02115778783
-0.02185200158
-0.02183470558
-0.02084940669
-0.01874979153
-0.0155994949
-0.01177655531
-0.008021086768
-0.005345623427
-0.004747089272
-0.007168200146
-0.01196540582
-0.02014506413
-0.02059562768
-0.02116536696
-0.02178612396
-0.02283940692
-0.02437492992
-0.02632069886
-0.02849197602
-0.03060316456
-0.03227701865
-0.03306760207
-0.03251293084
-0.03025563401
-0.02615369427
-0.02050246289
-0.01418443146
-0.008674860035
-0.005712033379
-0.007205533453
-0.01245234206
-0.02684429518
-0.02715065745
-0.0276907789
-0.02840994899
-0.02977396656
-0.03187097307
-0.0346374237
-0.0378648782
-0.04120630188
-0.04417537003
-0.04615743354
-0.04644833006
-0.04443369672
-0.03963271103
-0.03209646052
-0.02267736722
-0.01324841437
-0.00647051437
-0.005794839111
-0.01075185783
-0.03432043195
-0.03440470902
-0.03477597445
-0.03539
-0.036875243
-0.03939050144
-0.04289721523
-0.04717160338
-0.05181130003
-0.05622788896
-0.0596486863
-0.06116037337
-0.05975075863
-0.05462938142
-0.04541745444
-0.03267908593
-0.0184355095
-0.006231088154
-0.001661240058
-0.004862113661
-0.04259419046
-0.0422648756
-0.04218139254
-0.04228106407
-0.0434970952
-0.04609715103
-0.0500772238
-0.05519500863
-0.06098733391
-0.06676724961
-0.07161135087
-0.07438566055
-0.07380760901
-0.06865279005
-0.05805276259
-0.04204526636
-0.02242586561
-0.003245159702
0.007357132129
0.008349756023
-0.05199436418
-0.05074635162
-0.04966396314
-0.04856501751
-0.04891169639
-0.05110284996
-0.0551525779
-0.06077324907
-0.06741046569
-0.07426413278
-0.08025784496
-0.08405353484
-0.08411125222
-0.0788217225
-0.06683031849
-0.04751341102
-0.02211923427
0.005508749065
0.02472110506
0.0335314168
-0.06364085161
-0.06017567214
-0.05708517537
-0.05375287945
-0.05245338622
-0.05366605506
-0.05734765645
-0.06311898058
-0.07024107826
-0.0777790798
-0.08447205714
-0.08876817238
-0.08888488122
-0.08283019993
-0.0688452299
-0.04561793663
-0.0137505186
0.02441760176
0.05553988471
0.07735513756
-0.08017364217
-0.07106387586
-0.06411208841
-0.05715768591
-0.05342358563
-0.0532057195
-0.0562464527
-0.06189850665
-0.0692414507
-0.07709893631
-0.08399556401
-0.08813809598
-0.08747053107
-0.07965173915
-0.06247924465
-0.03405367691
0.005557874018
0.05859144988
0.1058184688
0.1480627952
-0.1104983717
-0.0858474478
-0.07160189821
-0.05896853241
-0.05191083726
-0.04987827628
-0.05209471704
-0.05749747299
-0.06484581624
-0.07269392285
-0.07932657042
-0.0827030207
-0.08051380275
-0.06988523607
-0.04823505058
-0.01272882629
0.03822758734
0.107123852
0.1779703579
0.2564679492
-0.1684317114
-0.09990446711
-0.0750075181
-0.05479888461
-0.04461968706
-0.04158378655
-0.04371282461
-0.04937310752
-0.05700600522
-0.06495844192
-0.07135009304
-0.07397091598
-0.07012352285
-0.0570123934
-0.03103172329
0.01192253464
0.07559027297
0.1663943313
0.2761519432
0.437694616
-0.3984232233
-0.1380963499
-0.07497059886
-0.04709067243
-0.03355158766
-0.03003011703
-0.03279881518
-0.03925796798
-0.04754887015
-0.05592801887
-0.06248944645
-0.06502070143
-0.06098949121
-0.04696783724
-0.01875902299
0.02992969659
0.106947438
0.2334179691
0.4198706537
0.7800140727
)


// ************************************************************************* //
