/*--------------------------------*- C++ -*----------------------------------*\
  =========                 |
  \\      /  F ield         | OpenFOAM: The Open Source CFD Toolbox
   \\    /   O peration     | Website:  https://openfoam.org
    \\  /    A nd           | Version:  13
     \\/     M anipulation  |
\*---------------------------------------------------------------------------*/
FoamFile
{
    format      ascii;
    class       vectorField;
    location    "25.4";
    object      U_all;
}
// * * * * * * * * * * * * * * * * * * * * * * * * * * * * * * * * * * * * * //


400
(
(1.090137629e-05 -3.789285726e-05 0)
(-0.0006661902716 0.0004130204568 -1.544765233e-23)
(-0.002185337111 0.0009203600503 0)
(-0.004047702844 0.001312729622 0)
(-0.005971648213 0.00153500423 6.835162887e-25)
(-0.007762485594 0.001569783383 4.152874923e-24)
(-0.009284189612 0.001423505056 -7.341692445e-24)
(-0.01043555157 0.001119679486 7.563442099e-24)
(-0.01113641555 0.0006960595859 -2.0979933e-25)
(-0.01132672849 0.0002030764032 -3.998570549e-24)
(-0.01097142964 -0.0003002163497 5.807886767e-24)
(-0.01007204697 -0.0007474876601 -5.933063354e-23)
(-0.008679677558 -0.00107553026 -6.556285855e-23)
(-0.006902736646 -0.001233015672 -7.788049172e-23)
(-0.004910704022 -0.001192619905 4.575945037e-24)
(-0.002927263682 -0.0009619165079 -4.140405971e-24)
(-0.001205371122 -0.0005912237424 -2.000420685e-22)
(-1.914605393e-05 -0.0001699070148 0)
(0.0005180985681 0.0001720561736 1.516828034e-25)
(0.0002227371514 0.0003059594297 -2.646770105e-24)
(-0.0002634016354 0.0008288525127 1.388062932e-25)
(-0.002703248192 0.003383665742 1.554449265e-23)
(-0.006907010085 0.005604235003 1.545174197e-25)
(-0.01195181303 0.007007886836 -8.474769528e-25)
(-0.0171342968 0.007553440764 1.159067606e-24)
(-0.02197439269 0.007293887451 1.30353026e-23)
(-0.02610963245 0.006321638477 1.421832369e-24)
(-0.02926441507 0.004754021411 -7.314304498e-24)
(-0.03122546613 0.002737081912 1.016889865e-23)
(-0.03184078653 0.0004524413065 4.514528279e-24)
(-0.03102649897 -0.001884010307 -6.323525684e-24)
(-0.02879221531 -0.004022821735 2.961259765e-24)
(-0.02527063642 -0.005708107918 3.897396239e-23)
(-0.0207314243 -0.006707163245 -1.955983226e-24)
(-0.015589319 -0.006853932303 3.75697021e-24)
(-0.01038501202 -0.006097325949 -9.749641419e-23)
(-0.005730280637 -0.004546134775 9.646433333e-23)
(-0.002233434946 -0.002507448638 -3.975647723e-25)
(-0.0001818377165 -0.0005024531918 4.075914284e-25)
(8.342586717e-05 0.0006098615665 0)
(-0.000418814212 0.002934926477 -2.915350019e-25)
(-0.00464768086 0.008803583765 1.70862646e-23)
(-0.01137143426 0.01323977925 -8.220020837e-24)
(-0.01932637847 0.01579128724 -2.065274445e-25)
(-0.02747282171 0.01652923796 2.028916513e-25)
(-0.03511615465 0.01564373233 7.858097215e-27)
(-0.04171154992 0.01335943823 -1.253267281e-24)
(-0.04683364857 0.00991942962 -4.572483369e-25)
(-0.05014775795 0.005602317955 -1.064790372e-23)
(-0.05141023002 0.0007445392094 0)
(-0.05047598959 -0.00424145106 0)
(-0.04733535923 -0.008886689913 2.672874887e-23)
(-0.04215787786 -0.01268117042 2.814832051e-23)
(-0.03531330939 -0.01513543091 -1.647404607e-24)
(-0.02738923467 -0.01586133569 4.850117078e-23)
(-0.01916963356 -0.01467291465 9.427685873e-23)
(-0.01156071847 -0.01169335606 3.984580785e-23)
(-0.005465369793 -0.007450680282 4.170989556e-25)
(-0.001451118081 -0.002936117415 1.058689082e-25)
(-9.072772396e-05 0.000225783236 0)
(-0.0005024408076 0.006045051421 -4.254942857e-23)
(-0.006402428446 0.01636994424 -1.698839527e-23)
(-0.01553425687 0.02355817449 8.146906958e-24)
(-0.02627782923 0.02744030144 0)
(-0.03728566238 0.02831970485 0)
(-0.04768811653 0.0265865608 0)
(-0.05679401544 0.02263030365 -4.573575628e-26)
(-0.06405098804 0.01683553585 -2.11814412e-24)
(-0.06900785657 0.009622011688 0)
(-0.07130535438 0.001491269648 1.640043467e-24)
(-0.07070577497 -0.006935930243 2.805664855e-25)
(-0.06712790934 -0.0149293272 -2.813520652e-25)
(-0.06069693855 -0.02166623237 0)
(-0.05180581346 -0.02631494362 4.137360199e-23)
(-0.04114866994 -0.02815966285 -4.685706227e-23)
(-0.02971887801 -0.02677286742 -2.766511535e-23)
(-0.01873670202 -0.02221473061 -3.969868999e-23)
(-0.00948782627 -0.01521895772 7.795551183e-25)
(-0.002976835559 -0.007298188067 9.780299314e-23)
(-0.0002318743149 -0.000866258773 0)
(-0.0005315846878 0.01009451224 4.275641338e-23)
(-0.007983193158 0.02595090122 4.7751566e-25)
(-0.01939591746 0.03642703723 -4.666093582e-25)
(-0.03282223267 0.04185320488 0)
(-0.04664467713 0.04289288704 7.772267196e-25)
(-0.05984953334 0.04019901545 -7.664501885e-25)
(-0.07162971101 0.03434608838 3.668776093e-23)
(-0.08132400632 0.02585581653 1.844524801e-23)
(-0.08836235006 0.01527272002 6.228660321e-24)
(-0.09225103441 0.003246450163 -1.641954139e-24)
(-0.09260028502 -0.009407003 0)
(-0.08917232545 -0.02167351622 4.376873681e-25)
(-0.08195696204 -0.032365885 1.011181915e-23)
(-0.07126650968 -0.0402108005 -4.353656446e-23)
(-0.05781837777 -0.0440188122 1.935603154e-24)
(-0.04278455647 -0.0429468733 4.226306971e-23)
(-0.02775372007 -0.0368324255 -3.856281653e-25)
(-0.01455023394 -0.02652661474 0)
(-0.004859341285 -0.01408436078 5.436242089e-23)
(-0.0003641351348 -0.002846999053 -2.563991018e-22)
(-0.0005271937701 0.01499853003 9.834727191e-23)
(-0.009377477582 0.03738837594 -4.902634108e-25)
(-0.02288075885 0.05169973123 0)
(-0.03882866217 0.05893907883 0)
(-0.05538410418 0.06025307044 -8.728480258e-23)
(-0.0714256856 0.056616673 -8.495420866e-23)
(-0.08606295742 0.04879988482 -4.063682621e-23)
(-0.09854691368 0.03743867108 -1.502556057e-23)
(-0.1081903771 0.02315944681 -5.359872213e-24)
(-0.114340271 0.006710038745 -8.169515046e-24)
(-0.1164005281 -0.01093185708 6.595181608e-24)
(-0.1138899049 -0.028487787 8.815624308e-24)
(-0.1065452554 -0.04436835783 -1.8921268e-23)
(-0.09446510422 -0.05675099438 4.560931433e-24)
(-0.07826622142 -0.06378063952 0)
(-0.05922723398 -0.06393284685 -1.577629868e-23)
(-0.03933870768 -0.05653651095 -2.277839807e-26)
(-0.02114130247 -0.0423570322 0)
(-0.007318501587 -0.02398183284 -1.519598217e-22)
(-0.000521595906 -0.005925508087 6.054043337e-22)
(-0.0004990623169 0.02064474241 -9.767742855e-23)
(-0.01052906292 0.05045196226 2.831228081e-22)
(-0.02582849531 0.06912188828 1.526482168e-22)
(-0.04401958358 0.07848905548 3.61811388e-24)
(-0.0631048819 0.08029135887 -7.318906021e-23)
(-0.08190089936 0.07587746044 9.039632269e-23)
(-0.09947395272 0.06621460785 -3.588961745e-24)
(-0.1150186551 0.05201547747 -1.728480524e-24)
(-0.1277475843 0.03392302259 2.523118038e-24)
(-0.1368428282 0.01270269744 7.377499464e-24)
(-0.1414666751 -0.01058657749 -6.495255808e-24)
(-0.1408206445 -0.03445823 -9.775946744e-24)
(-0.1342707683 -0.05692510593 -3.261676653e-23)
(-0.1215416718 -0.07553017991 -3.653921708e-23)
(-0.1029645015 -0.087539526 5.630564486e-25)
(-0.07976160052 -0.09038922237 0)
(-0.05426541528 -0.08244276355 0)
(-0.02987083504 -0.0639757217 -2.904376096e-24)
(-0.01066257029 -0.03798710872 2.968787876e-24)
(-0.0007350668064 -0.01050073223 1.027823088e-22)
(-0.0004479086799 0.02687126615 0)
(-0.01134883878 0.06480461843 2.001889626e-22)
(-0.02801502264 0.08829225706 8.961770395e-23)
(-0.04799692666 0.1001192434 0)
(-0.06920370288 0.1027035593 1.569487812e-22)
(-0.09044080404 0.09781221613 0)
(-0.1107797267 0.08660825171 -1.428125557e-22)
(-0.1294055409 0.06983769029 6.514075727e-24)
(-0.1454730639 0.04808156689 0)
(-0.1580309505 0.02201787854 0)
(-0.1660091173 -0.007333086708 -1.373983248e-24)
(-0.1682630598 -0.03838612238 -9.312472984e-25)
(-0.1637026328 -0.06883673419 1.491415526e-22)
(-0.1515174261 -0.09557921622 -4.704457914e-23)
(-0.1315105168 -0.1148261001 -2.55926484e-24)
(-0.1045572908 -0.1225666963 1.533056983e-24)
(-0.07309187624 -0.1155486437 -1.557239856e-24)
(-0.04134928373 -0.09282882908 0)
(-0.01525194691 -0.05740637222 3.202884349e-24)
(-0.001044276072 -0.01714681413 -1.012671571e-21)
(-0.0003744730403 0.03346160075 0)
(-0.01174977072 0.07998578315 -1.127923301e-22)
(-0.02920632604 0.1086346017 -6.190269736e-22)
(-0.05031614142 0.1232185322 -3.754832074e-22)
(-0.07296130197 0.1269050209 0)
(-0.09598721198 0.1219214822 4.118912116e-22)
(-0.1185245228 0.1096316756 1.260692887e-22)
(-0.1398114816 0.09078034894 -5.580927164e-24)
(-0.1590187664 0.06581299538 5.553304575e-24)
(-0.1751425875 0.03520906465 0)
(-0.186952456 -0.0001953545418 2.911702256e-23)
(-0.193013783 -0.03889511981 4.694842865e-24)
(-0.1917776593 -0.07843559614 -1.076501788e-22)
(-0.1817843544 -0.1151826028 8.00128534e-23)
(-0.1620543052 -0.1442556484 -2.419102503e-22)
(-0.1327039344 -0.1598505563 0)
(-0.09577720563 -0.1563073957 0)
(-0.05601531165 -0.1302950726 0)
(-0.02147817626 -0.08380951983 0)
(-0.001500345593 -0.02665462613 5.570887655e-22)
(-0.0002874116831 0.040159206 0)
(-0.01169345268 0.09543240808 -3.492570442e-22)
(-0.02924395241 0.1294024647 8.931823734e-22)
(-0.05060866922 0.1469246099 3.616719831e-22)
(-0.07369963067 0.1519697658 0)
(-0.09744995364 0.1472713545 -3.86204405e-22)
(-0.1211051282 0.134415726 -3.174053581e-23)
(-0.144030405 0.1141370261 3.332754805e-22)
(-0.1655121117 0.08669901091 1.769288837e-22)
(-0.1846225705 0.05229143268 -4.059733441e-23)
(-0.2001302798 0.01141854788 1.656764469e-23)
(-0.2104599568 -0.03471178502 -8.264101445e-24)
(-0.2137186023 -0.08376226639 3.37146049e-22)
(-0.2078193649 -0.1318715452 0)
(-0.1908217901 -0.1732710466 2.420271217e-22)
(-0.1616317299 -0.2002546131 5.772799661e-24)
(-0.1211647836 -0.2040077089 -5.85888918e-24)
(-0.07384891091 -0.1772083216 1.547801355e-22)
(-0.02971742643 -0.1188618639 -5.433506729e-24)
(-0.00217950095 -0.0400532169 0)
(-0.0002117564603 0.04671479594 0)
(-0.0112500434 0.1105459919 0)
(-0.02815621088 0.1497304216 -5.022261947e-22)
(-0.04874462025 0.170146243 -1.880829132e-23)
(-0.07100052522 0.1766204139 2.038189122e-23)
(-0.09399401755 0.1724480523 -2.014123858e-23)
(-0.1171428189 0.1594835294 -2.316665256e-23)
(-0.1400172815 0.1384781567 -3.029503704e-22)
(-0.1621322135 0.1095150077 6.698443951e-23)
(-0.1827952529 0.07245206906 4.51270413e-23)
(-0.2009829314 0.02735065702 -4.57723418e-23)
(-0.2152264017 -0.02508457661 0)
(-0.2235555453 -0.08298024471 -7.837907591e-23)
(-0.2234624374 -0.1427217591 0)
(-0.2120670291 -0.1981775897 -3.739154777e-22)
(-0.1867424438 -0.2400725838 5.244206564e-22)
(-0.1464428408 -0.2560726257 0)
(-0.09394489507 -0.2331168416 -1.493367089e-22)
(-0.04021959769 -0.1639585293 1.936902369e-22)
(-0.003201053285 -0.05860962114 -3.410884227e-22)
(-0.0002015904056 0.052974319 0)
(-0.01067283904 0.1248135203 9.182246574e-22)
(-0.02628486515 0.1687374578 -2.44050467e-23)
(-0.04501160083 0.1916400506 9.19271141e-22)
(-0.06494658243 0.1992868562 -2.511897096e-23)
(-0.08536696672 0.1956059046 2.838625626e-23)
(-0.105931334 0.1827852167 -2.812713681e-23)
(-0.1264933005 0.1616561244 -1.660793043e-23)
(-0.1469006971 0.1321752903 -5.25984219e-22)
(-0.1668469526 0.09389675216 -8.905974579e-24)
(-0.1857315222 0.04640713668 9.659514775e-24)
(-0.2024794016 -0.01023556345 3.312879948e-22)
(-0.2154165934 -0.07499517569 -5.820331154e-22)
(-0.2220218662 -0.1450275638 0)
(-0.2188037573 -0.2146719683 8.886548696e-22)
(-0.2016258981 -0.2739972054 -4.940184296e-22)
(-0.1668637153 -0.3075766452 -1.571997276e-23)
(-0.1140216314 -0.2953769836 0)
(-0.05288451823 -0.2195771261 -1.889546956e-22)
(-0.004749143414 -0.08377155796 3.359953174e-22)
(-0.0003642575618 0.05902182175 1.550912312e-23)
(-0.01049613863 0.1379847534 -8.763603085e-22)
(-0.02441471597 0.185675756 -1.156993385e-21)
(-0.04026845545 0.2101333384 -8.62839883e-22)
(-0.05630884594 0.2182299471 0)
(-0.07215041259 0.2146147933 3.513579431e-23)
(-0.08779433336 0.2018760146 -7.294400812e-23)
(-0.1034586487 0.180998608 5.867516108e-23)
(-0.1194009859 0.1518990196 3.021165136e-22)
(-0.1357959394 0.1139155045 -1.128129038e-23)
(-0.1526111334 0.06621566881 0)
(-0.1694550416 0.008179375116 -3.603711451e-22)
(-0.1852788256 -0.06015714838 7.51527711e-22)
(-0.1980473201 -0.1372715722 8.831290315e-22)
(-0.2043566231 -0.2189227366 -5.296237163e-22)
(-0.1990991493 -0.295967546 5.162343744e-22)
(-0.1760612705 -0.3514032933 1.078027134e-23)
(-0.1300892504 -0.3584111859 -1.09533887e-23)
(-0.06688793272 -0.2843244995 -8.221255486e-23)
(-0.007083286339 -0.1169950834 0)
(-0.0009096419189 0.06539932803 -1.911385492e-23)
(-0.01167646639 0.150278767 -1.326902429e-21)
(-0.02389000737 0.2000618975 1.094175675e-21)
(-0.0360152232 0.2244171408 6.734600649e-22)
(-0.04657547321 0.2316544135 6.014332891e-22)
(-0.05577325711 0.2272356127 6.643619789e-22)
(-0.06411573247 0.2141747229 -4.458438602e-23)
(-0.07227922056 0.19364784 -3.461169492e-22)
(-0.08097358733 0.1656024009 2.152062334e-22)
(-0.09087594723 0.1292713568 0)
(-0.102558842 0.08353229252 0)
(-0.1163662722 0.02720217577 2.655299423e-22)
(-0.1321628425 -0.04061763025 8.194528472e-23)
(-0.1489287954 -0.1200102141 -2.821428699e-22)
(-0.1641314933 -0.208927334 -5.411046613e-23)
(-0.1727901528 -0.3006963702 1.301978898e-22)
(-0.1670327281 -0.3793298209 -3.40019975e-22)
(-0.1365300339 -0.4136419999 -1.596588213e-23)
(-0.08018267028 -0.35382978 8.210020047e-23)
(-0.01050761306 -0.1594116824 -6.032655069e-22)
(-0.002260562476 0.07348808614 0)
(-0.01580420492 0.1626499851 2.145778924e-21)
(-0.02665187321 0.211787215 0)
(-0.03422566591 0.2333909603 -1.351747593e-21)
(-0.03759700153 0.2377729829 6.184250223e-23)
(-0.03800049544 0.2312521936 -6.192778651e-22)
(-0.03668677676 0.2171876021 -4.756070191e-22)
(-0.03489482026 0.1968922084 8.300873628e-22)
(-0.03379304484 0.1703340275 -1.885609714e-22)
(-0.03450349994 0.136722821 0)
(-0.03812042023 0.09479817185 0)
(-0.04565447 0.04304477501 2.410717616e-23)
(-0.05791235181 -0.02013567291 -6.006993935e-22)
(-0.07514995458 -0.09620434371 -4.309416315e-22)
(-0.09645525408 -0.1855535274 4.637733135e-22)
(-0.1183491469 -0.2853547278 -6.488419237e-22)
(-0.1332736709 -0.3838365098 9.119187767e-23)
(-0.1265363564 -0.4504336049 2.940224595e-23)
(-0.08899197515 -0.4198514051 5.660647816e-22)
(-0.01526920378 -0.2111707352 6.021286877e-22)
(-0.00518095429 0.08598008273 0)
(-0.02525617075 0.1766277001 1.465595229e-22)
(-0.03483561475 0.2205938275 -4.916963038e-23)
(-0.03640260088 0.235483097 7.642618333e-22)
(-0.03018814841 0.2343378034 -7.005078107e-22)
(-0.01916982599 0.2241578969 4.746282751e-23)
(-0.005619658361 0.2083507694 -1.01858453e-22)
(0.008564788771 0.1881231311 -3.389741296e-22)
(0.02179388733 0.1633910073 2.062746917e-22)
(0.03262289878 0.133324926 0)
(0.03957985487 0.09664211485 0)
(0.04116568977 0.0517421938 -2.90258001e-22)
(0.0357807181 -0.003253632476 0)
(0.02197810004 -0.07058187575 -5.512066692e-22)
(-0.001268155746 -0.152571983 -1.492106986e-23)
(-0.03310748463 -0.2505935926 2.559615994e-23)
(-0.06909458352 -0.3599328088 2.202916723e-22)
(-0.09227972697 -0.457541143 4.789310875e-24)
(-0.08718149183 -0.4698114745 -5.789631637e-22)
(-0.02103133329 -0.2698962724 0)
(-0.01111634403 0.1085974626 0)
(-0.04248956033 0.1947144972 -8.84819675e-22)
(-0.0479566335 0.2258181636 -5.410899105e-22)
(-0.03919760248 0.2282116766 4.543685161e-22)
(-0.01878140539 0.2182308006 -1.71005165e-24)
(0.007660485706 0.2028202166 -4.560888222e-23)
(0.03667559728 0.1847606158 5.696457773e-22)
(0.06582535257 0.1647110303 -2.766788737e-23)
(0.09326658582 0.1423126772 -2.069704841e-22)
(0.1173845541 0.1166279519 3.142111843e-23)
(0.136541824 0.08641237486 -3.425818953e-23)
(0.1489629395 0.0501779363 -3.690505778e-23)
(0.1525240253 0.006160539979 3.205562054e-22)
(0.1449336087 -0.04795995324 6.119473207e-22)
(0.12351331 -0.1153041641 -5.101056228e-22)
(0.08633313429 -0.2004186802 -1.615988441e-22)
(0.0319889698 -0.306779975 1.531364887e-22)
(-0.02362260616 -0.4239830262 7.293749294e-23)
(-0.06492468972 -0.4871604963 1.913303262e-21)
(-0.0250997939 -0.3291538624 2.955004649e-21)
(-0.02004678373 0.1460729199 -4.39012451e-23)
(-0.06416430856 0.2112954669 4.417296746e-23)
(-0.05070310596 0.2177294453 1.000165802e-21)
(-0.01934247754 0.2014669783 -8.268746142e-24)
(0.02414240014 0.1809064025 0)
(0.07153828556 0.1606921584 4.363568049e-23)
(0.1190668844 0.1416486093 -2.273767647e-22)
(0.1644729488 0.1233175931 -9.02761188e-23)
(0.2062212091 0.1048115566 3.680597184e-23)
(0.2429604779 0.08507162984 -1.701601739e-23)
(0.2732171838 0.06296203792 3.429872145e-23)
(0.295250424 0.03726372148 -6.592510793e-23)
(0.3066943319 0.006535946132 -9.303708359e-23)
(0.3049714921 -0.03087685441 1.517009101e-22)
(0.2863917219 -0.07786220742 0)
(0.2470552924 -0.1399295515 1.505534218e-22)
(0.1810909963 -0.2266297542 2.560016147e-22)
(0.09604358568 -0.3443892235 0)
(-0.006698084683 -0.4552207326 -3.675653161e-21)
(-0.0192241587 -0.3777534912 -2.892633643e-21)
(-0.02591945824 0.2276830705 -9.51415028e-22)
(-0.03998314693 0.2238217834 -1.388955249e-22)
(0.03656127656 0.1810584182 -2.335526752e-22)
(0.1090497968 0.1451055454 -1.193710831e-22)
(0.1817180845 0.1172440253 -4.295714147e-23)
(0.2490074769 0.09627852071 9.782798496e-23)
(0.3100315838 0.08002462925 -1.408534626e-22)
(0.3646184924 0.06656783511 1.297125264e-22)
(0.4126226245 0.0544916711 -8.619801243e-23)
(0.453622404 0.04270903392 1.132180431e-25)
(0.4867854085 0.03032323921 1.527698175e-23)
(0.5107429606 0.0165293885 7.996995042e-23)
(0.5236579505 0.0005369079746 -1.811081061e-22)
(0.523178433 -0.01863334949 -1.617111138e-22)
(0.5052313365 -0.04286448035 -4.262758899e-23)
(0.4658708006 -0.07633211769 0)
(0.3952691373 -0.1286088775 -1.846509223e-22)
(0.2916067189 -0.2208467923 8.148794368e-22)
(0.1197452767 -0.3525016741 1.631606803e-21)
(0.02670541347 -0.3775497629 2.172658436e-21)
(0.2142895054 0.1347447792 9.864929137e-22)
(0.2776313045 0.09870511111 0)
(0.4316594355 0.05810417801 -2.594274645e-22)
(0.5304750184 0.03846263694 -1.741624256e-22)
(0.6016964202 0.02623414481 0)
(0.657119447 0.01831917611 -6.008851435e-23)
(0.7015206337 0.01313595812 6.377723904e-23)
(0.737603315 0.009542098738 -1.800076104e-23)
(0.7669357978 0.00680446716 2.885850906e-23)
(0.7902096269 0.004464778617 2.314945683e-23)
(0.8074545625 0.002221379307 0)
(0.8182613737 -0.0001500002589 -2.872951261e-23)
(0.8216494291 -0.00272376983 0)
(0.8162391049 -0.005712609495 2.738041843e-23)
(0.7991331807 -0.009611348006 1.421610281e-23)
(0.7679986208 -0.01500254172 -5.799476394e-23)
(0.7106556082 -0.02502521501 -2.535679336e-22)
(0.623518419 -0.04204287228 -6.918125942e-22)
(0.4230090996 -0.09182969968 0)
(0.2705674633 -0.1524021927 -2.119486239e-21)
)


// ************************************************************************* //
