/*--------------------------------*- C++ -*----------------------------------*\
  =========                 |
  \\      /  F ield         | OpenFOAM: The Open Source CFD Toolbox
   \\    /   O peration     | Website:  https://openfoam.org
    \\  /    A nd           | Version:  13
     \\/     M anipulation  |
\*---------------------------------------------------------------------------*/
FoamFile
{
    format      ascii;
    class       volScalarField;
    location    "1";
    object      p;
}
// * * * * * * * * * * * * * * * * * * * * * * * * * * * * * * * * * * * * * //

dimensions      [0 2 -2 0 0 0 0];

internalField   nonuniform List<scalar> 
400
(
1.542626359e-08
-0.0002177394261
-0.0002000164969
5.461208109e-05
0.0004914980205
0.001069140541
0.001752985305
0.002517245849
0.003341760804
0.004208961751
0.005100349299
0.006000216367
0.00688566775
0.00773192577
0.008507617473
0.00917249167
0.009676063122
0.009963041195
0.00997702874
0.009724149281
0.0002431051163
8.349599952e-06
-1.418149977e-05
0.0002001803079
0.0005920412424
0.001129018349
0.001782560174
0.002527980208
0.003343369253
0.00420800947
0.005101633266
0.006000044046
0.006878955516
0.007708844199
0.008455109436
0.009077329189
0.009530633792
0.009770516215
0.009735486093
0.009458747548
0.0002150528256
-1.230951948e-05
-4.76508237e-05
0.0001540669491
0.000528656842
0.001051690056
0.001698706506
0.002446674309
0.003273462285
0.004156814511
0.005073419478
0.005997561854
0.006900379588
0.007748727988
0.008504671861
0.009125728598
0.009567602665
0.00979127938
0.009731845292
0.009449177638
-0.0001209151071
-0.0003333630311
-0.0003633154716
-0.0001509546993
0.0002349348137
0.0007741324151
0.001445358869
0.002227668491
0.003099510655
0.004037850009
0.005017262105
0.0060091902
0.006980653874
0.007893925569
0.00870617098
0.009370468089
0.009839478686
0.01007430475
0.0100054554
0.009715681813
-0.0007746227199
-0.0009594179994
-0.0009695751073
-0.0007260703947
-0.0003040429465
0.0002789379073
0.001004164468
0.001852881259
0.002804614028
0.00383609013
0.004920123515
0.006025410753
0.007113985941
0.008142045061
0.009059426332
0.009811458427
0.01034399959
0.01061495959
0.01054889925
0.01025180633
-0.001760953881
-0.001919362147
-0.001902674368
-0.001611118569
-0.001130146011
-0.0004762399852
0.0003338407985
0.001283640452
0.002354272685
0.003522796545
0.004760547303
0.00603370209
0.007297921705
0.008501266589
0.009582800423
0.01047538491
0.01111273708
0.01144481575
0.01138454212
0.01106522255
-0.003108895683
-0.0032525258
-0.003207615827
-0.002854741
-0.002294661514
-0.001544370621
-0.0006191343626
0.000467252853
0.001698293575
0.003052197743
0.004499039968
0.006004646845
0.007515412425
0.008969178289
0.01028974061
0.01139075194
0.01218566615
0.0126088482
0.01255161856
0.01217941724
-0.004868030718
-0.005014424346
-0.004944027607
-0.004519705834
-0.003863396713
-0.00299409654
-0.001925675456
-0.0006684129795
0.0007649175645
0.002354719884
0.004067861633
0.005884465538
0.007727905508
0.00952689604
0.0111849949
0.01258724742
0.01361426112
0.0141719116
0.01411247511
0.01364152562
-0.007110887787
-0.007281125774
-0.007190762382
-0.006686858653
-0.00592021444
-0.004913215598
-0.003677909407
-0.002219398536
-0.0005441920499
0.001335345938
0.00339958812
0.005589225945
0.007862742749
0.01012550768
0.01225300028
0.01408888052
0.01546158032
0.01622607161
0.01616231464
0.01552883913
-0.009936994812
-0.01015402241
-0.01005055158
-0.009459016575
-0.008570451394
-0.007412073618
-0.00599326424
-0.004311797355
-0.002365154449
-0.000156794456
0.002299322458
0.004965338655
0.007786415145
0.01066025965
0.01343403978
0.01589674189
0.01779698762
0.01889990613
0.01884698028
0.01796642538
-0.01348219957
-0.01376737082
-0.01365608438
-0.01296515125
-0.01194380093
-0.01062556017
-0.009015734961
-0.007101919814
-0.004868798374
-0.002305299755
0.0005903263098
0.003799473211
0.007280236784
0.01093151158
0.01457918364
0.01794929197
0.02067562775
0.02236747774
0.02239634678
0.02117185414
-0.01793824515
-0.01830129826
-0.01817869045
-0.01736484668
-0.01619594572
-0.01471271469
-0.01291424509
-0.01077502391
-0.008263794962
-0.005350210687
-0.002008632233
0.001772420746
0.005994063098
0.0105799324
0.01536749085
0.02003663109
0.02407828812
0.02684373595
0.02718121686
0.02555892552
-0.02359255981
-0.02400380602
-0.0238397619
-0.02285111859
-0.02150577563
-0.01984921739
-0.01787039308
-0.01552828483
-0.01277514362
-0.009560369692
-0.005830666854
-0.001539372993
0.003420698302
0.009016396763
0.01518409886
0.02164183315
0.02776626356
0.03252664282
0.03378801259
0.03195509772
-0.03091133164
-0.03122977231
-0.03092652636
-0.02964922748
-0.02806294628
-0.02620460775
-0.02404438691
-0.02152408911
-0.01858374341
-0.01515847702
-0.01116613763
-0.006486000548
-0.001030752663
0.005428862908
0.01303318185
0.02174453845
0.03102471782
0.03941980095
0.0430649041
0.0419989327
-0.04070802436
-0.04048746201
-0.03978268991
-0.03797608447
-0.03601042269
-0.03387001376
-0.03148573326
-0.02878012053
-0.02569229128
-0.0221628099
-0.01811027245
-0.01339784911
-0.007794168492
-0.0009188517378
0.007787554462
0.01891154163
0.03253436001
0.04712785743
0.05617645008
0.05878521445
-0.0545701932
-0.05257880637
-0.05082660725
-0.04798239943
-0.04533439196
-0.04270698083
-0.03994837098
-0.03695288166
-0.03366939968
-0.03006604103
-0.02609213662
-0.02162140719
-0.01634550085
-0.009721380012
-0.0006398869594
0.01253426171
0.03136768217
0.05546743464
0.07519477138
0.08789994613
-0.07540545081
-0.06825787577
-0.06398291737
-0.05914608826
-0.05528446321
-0.05181414028
-0.04841444099
-0.04492378823
-0.04129468382
-0.03752484642
-0.03359975604
-0.02942010984
-0.02468517917
-0.01855546586
-0.00947209679
0.005491706278
0.03007812614
0.06716561759
0.1046868302
0.1381207684
-0.1115229698
-0.08926958297
-0.07918953175
-0.07028974795
-0.06409655529
-0.05914413421
-0.05473931285
-0.05055287607
-0.04645721911
-0.04241064206
-0.03837038158
-0.0341880855
-0.02945904603
-0.02309681161
-0.01296089144
0.005085366151
0.03675895671
0.09020570733
0.1524031889
0.2237667091
-0.1742970252
-0.1078868429
-0.08827969877
-0.07291813709
-0.06431829628
-0.05865086324
-0.05418604753
-0.05018302558
-0.04633883106
-0.04252047729
-0.03860668307
-0.03433170745
-0.02906277493
-0.02117111793
-0.008023038126
0.01590673978
0.058555668
0.1320840919
0.2316017884
0.3921559323
-0.4037394018
-0.1463940091
-0.08942947985
-0.06720961914
-0.05590559707
-0.05030331472
-0.04698036256
-0.04425512613
-0.04153331375
-0.03857859956
-0.03518064496
-0.03093576656
-0.02502706998
-0.01570492356
0.0009052322207
0.0322493772
0.08969578694
0.1997832291
0.376854371
0.7356187654
)
;

boundaryField
{
    movingWall
    {
        type            zeroGradient;
    }
    fixedWalls
    {
        type            zeroGradient;
    }
    frontAndBack
    {
        type            empty;
    }
}


// ************************************************************************* //
