/*--------------------------------*- C++ -*----------------------------------*\
  =========                 |
  \\      /  F ield         | OpenFOAM: The Open Source CFD Toolbox
   \\    /   O peration     | Website:  https://openfoam.org
    \\  /    A nd           | Version:  13
     \\/     M anipulation  |
\*---------------------------------------------------------------------------*/
FoamFile
{
    format      ascii;
    class       scalarField;
    location    "1";
    object      p_all;
}
// * * * * * * * * * * * * * * * * * * * * * * * * * * * * * * * * * * * * * //


400
(
1.892746354e-09
0.0001723950382
0.0007268546336
0.001697390781
0.003057819785
0.004768340416
0.006778833402
0.009030976234
0.01146015301
0.01399730635
0.0165707436
0.01910789863
0.02153707722
0.02378922385
0.02579971943
0.02751024182
0.02887067305
0.02984121005
0.03039566862
0.03056805906
-0.0001723819183
2.23098351e-06
0.0005578248931
0.001538997931
0.002915595752
0.004646476934
0.006680663484
0.008959056602
0.01141628774
0.01398256649
0.01658548353
0.01915176375
0.02160899654
0.0238873932
0.02592158262
0.02765246555
0.02902906498
0.03001023944
0.03056583388
0.03074044489
-0.0007377642551
-0.0005505675353
2.619111943e-05
0.001044192025
0.002472075771
0.004266709383
0.006374861169
0.008735094076
0.01127971736
0.01393667991
0.0166313697
0.01928833342
0.0218329586
0.02419319468
0.02630134884
0.02809598482
0.02952387012
0.03054187171
0.03111863214
0.03130582888
-0.001763896208
-0.001562657608
-0.0009466759956
0.0001395102411
0.001661811557
0.003573427902
0.005816980567
0.008326744148
0.01103080956
0.01385306613
0.01671498267
0.0195372402
0.02224130754
0.02475107416
0.02699462896
0.02890624782
0.0304285506
0.03151473741
0.03213072044
0.03233195981
-0.003285283047
-0.003064436862
-0.002389725737
-0.001201269106
0.0004622460841
0.002548220788
0.004992896029
0.007724097299
0.01066371434
0.01372979354
0.01683825382
0.01990433468
0.02284395313
0.02557515627
0.02801983391
0.03010581169
0.03176932906
0.03295778632
0.03363249847
0.0338533449
-0.005350049927
-0.005102298088
-0.004346469563
-0.003017065438
-0.001159746819
0.001164337461
0.003882302118
0.006913044636
0.01017016277
0.01356414314
0.01700390259
0.02039788418
0.02365500378
0.02668574819
0.02940371577
0.03172780278
0.03358512392
0.03491452926
0.03567035897
0.03591811134
-0.008024096388
-0.007740397043
-0.006876669166
-0.005360679363
-0.003248431791
-0.0006133729577
0.002458966679
0.005875638827
0.009539759473
0.01335271747
0.01721532643
0.02102828485
0.02469240752
0.02810908206
0.03118142456
0.03381648622
0.03592873622
0.03744472807
0.03830845693
0.03859215674
-0.01139512615
-0.01106388929
-0.01005885093
-0.008300327978
-0.005859761841
-0.002828248034
0.0006913746979
0.004590832124
0.008760544118
0.01309164893
0.017476392
0.02180749792
0.02597721287
0.02987667351
0.03339629849
0.03642781511
0.03886838309
0.04062690854
0.04163194847
0.04196318564
-0.01557828977
-0.01518381177
-0.01399386486
-0.01192151006
-0.009061668595
-0.005530978573
-0.001455890345
0.003035867865
0.007819987737
0.01277696072
0.01779107984
0.02274805382
0.02753217566
0.03202393741
0.03609902849
0.03962972176
0.04248956516
0.044561922
0.0457518705
0.04614634903
-0.02072479586
-0.02024433572
-0.01880976823
-0.016329019
-0.0129336019
-0.008777560797
-0.004019484033
0.00118874106
0.006706680133
0.01240515858
0.01816288252
0.02386136195
0.02937930297
0.03458753133
0.03934561078
0.04350165436
0.04689707384
0.04937782515
0.05081239361
0.05129285392
-0.02703557029
-0.02643362352
-0.02466832434
-0.02164857046
-0.01756435301
-0.01262501656
-0.007032522866
-0.0009677014251
0.005413032706
0.01197417083
0.0185938714
0.02515500963
0.03153574556
0.03760057035
0.04319306749
0.04813240622
0.05221662566
0.05523638141
0.05700168133
0.05760362853
-0.0347837505
-0.03400021005
-0.03177315072
-0.02802668519
-0.023046303
-0.01712319763
-0.01051646953
-0.003439278803
0.003939360839
0.01148473266
0.01908331046
0.02662868307
0.03400732428
0.04108451771
0.04769124912
0.05361435733
0.05859474129
0.06234120813
0.06456826806
0.06535180939
-0.04435332232
-0.04327767772
-0.04037847215
-0.03562558571
-0.02946260106
-0.02230001686
-0.01446808347
-0.006210830823
0.002299651275
0.010942292
0.0196257523
0.02826839361
0.03677887789
0.04503613321
0.05286806892
0.06003065602
0.06619364311
0.07094653123
0.07384573713
0.07492138195
-0.05630874345
-0.05472087535
-0.05079403265
-0.04460576414
-0.03686098292
-0.02813625086
-0.01883969628
-0.009232920242
0.0005290113127
0.01035938241
0.02020866335
0.03003903513
0.03980096906
0.04940774745
0.05870430412
0.06742903873
0.07517382257
0.08136209324
0.08528893651
0.08687680472
-0.07152762047
-0.06895469464
-0.06337216612
-0.0550804471
-0.04520373306
-0.03452521994
-0.02351182402
-0.01240547822
-0.001308007276
0.009758138246
0.02080990817
0.03187605455
0.04297352727
0.05407987561
0.06509327371
0.07577178964
0.08564850646
0.09394022754
0.09952275718
0.1020956841
-0.09147087649
-0.08682251326
-0.07843804529
-0.06701056693
-0.05427886225
-0.04121415685
-0.02826016229
-0.01556148263
-0.003110460386
0.009172153644
0.02139589335
0.03367850826
0.04612953203
0.05882821428
0.0717822117
0.08484691975
0.09757862698
0.1090061078
0.1173905776
0.122038942
-0.118776706
-0.1093636409
-0.09606377899
-0.07998598122
-0.06355923197
-0.04773275883
-0.03272643482
-0.01845824031
-0.00473982999
0.008646286384
0.02192176078
0.03530787772
0.04902628974
0.0632944869
0.07830081417
0.09412728997
0.1105540421
0.1266318426
0.1399317065
0.1493447724
-0.1586729288
-0.1374344955
-0.1154607901
-0.09282809104
-0.07202399304
-0.05333907686
-0.03641620275
-0.02078959288
-0.006030899715
0.008232614171
0.02233543338
0.03659894786
0.05135764309
0.06698425555
0.08390713226
0.1025920513
0.1233961522
0.1460288549
0.1680025614
0.189240996
-0.2225295487
-0.1699331234
-0.1335924476
-0.1030451952
-0.07805487828
-0.05706160008
-0.038763001
-0.02223523398
-0.006820280701
0.007981272222
0.02258677495
0.03738832909
0.05280328467
0.06933105412
0.08762965557
0.1086229368
0.1336132569
0.1641605118
0.2005011895
0.2530976153
-0.3676021312
-0.2132180211
-0.1483727904
-0.1088156491
-0.08073441281
-0.05850623528
-0.03961300405
-0.02274145616
-0.00709230081
0.007895219635
0.0226728276
0.03766034974
0.05330950695
0.0701810569
0.08907429107
0.1113024717
0.1393837109
0.1789408556
0.243786088
0.3981701955
)


// ************************************************************************* //
