/*--------------------------------*- C++ -*----------------------------------*\
  =========                 |
  \\      /  F ield         | OpenFOAM: The Open Source CFD Toolbox
   \\    /   O peration     | Website:  https://openfoam.org
    \\  /    A nd           | Version:  13
     \\/     M anipulation  |
\*---------------------------------------------------------------------------*/
FoamFile
{
    format      ascii;
    class       surfaceScalarField;
    location    "1";
    object      phi;
}
// * * * * * * * * * * * * * * * * * * * * * * * * * * * * * * * * * * * * * //

dimensions      [0 3 -1 0 0 0 0];

internalField   nonuniform List<scalar> 
760
(
-2.01190012e-05
2.011883374e-05
-7.03431116e-05
5.022413288e-05
-0.0001335332623
6.319019883e-05
-0.0001970182863
6.348510296e-05
-0.0002545942181
5.757599595e-05
-0.0003036187129
4.902452168e-05
-0.0003431678291
3.954911282e-05
-0.0003728656511
2.969779438e-05
-0.000392399502
1.953381276e-05
-0.0004013680019
8.968464254e-06
-0.0003994593407
-1.90869863e-06
-0.0003860511119
-1.340824689e-05
-0.000360736737
-2.53143861e-05
-0.0003231457056
-3.759106641e-05
-0.0002732770129
-4.986875019e-05
-0.0002121847447
-6.109233122e-05
-0.0001433474842
-6.883730615e-05
-7.463712048e-05
-6.871035875e-05
-2.069529281e-05
-5.394180209e-05
-2.069532806e-05
-5.427776207e-05
7.439661952e-05
-0.0001737845356
0.0001697309754
-0.0003218303944
0.0002112360555
-0.0004718125783
0.0002134672541
-0.0006089168722
0.000194680238
-0.0007261618795
0.0001662694421
-0.0008206701857
0.0001340573117
-0.0008912380421
0.0001002655488
-0.000937102832
6.539853087e-05
-0.0009574964864
2.936211308e-05
-0.0009514222204
-7.982922812e-06
-0.0009179591018
-4.687129207e-05
-0.0008560966789
-8.717672554e-05
-0.0007652375708
-0.0001284501151
-0.000645945038
-0.00016916126
-0.000501572094
-0.000205465265
-0.0003410061478
-0.0002294032268
-0.0001822672229
-0.0002274492674
-5.571171281e-05
-0.000180497411
-7.64070515e-05
-7.477811561e-05
0.0001491747833
-0.0002382284736
0.0003331814686
-0.0004405813257
0.0004135889933
-0.0006474075479
0.0004202935129
-0.0008382341099
0.0003855068185
-0.001002578046
0.0003306133724
-0.001135644124
0.0002671233612
-0.001235206718
0.0001998280961
-0.001299899294
0.0001300910578
-0.001328478992
5.79417831e-05
-0.001319592397
-1.686953755e-05
-0.001271833733
-9.462997694e-05
-0.001183963952
-0.000175046547
-0.001055493581
-0.0002569205338
-0.0008878854762
-0.0003367693702
-0.0006867887336
-0.0004065619662
-0.0004654901605
-0.0004507017546
-0.0002489398135
-0.0004439996648
-7.63886674e-05
-0.0003530486436
-0.0001527957108
-8.724212221e-05
0.0002364169141
-0.00027971643
0.0005256558253
-0.0005201083298
0.0006539809322
-0.0007679837336
0.0006681689244
-0.0009987247547
0.0006162478408
-0.001199120843
0.0005310094473
-0.001362633028
0.0004306355479
-0.001485901338
0.000323096422
-0.00156675788
0.0002109476177
-0.00160331694
9.450086334e-05
-0.001593675639
-2.651081026e-05
-0.001535940538
-0.0001523650205
-0.001428599587
-0.0002823874417
-0.001271296576
-0.000414223534
-0.001066384681
-0.0005416812678
-0.0008216127111
-0.00065133391
-0.0005540388956
-0.0007182755702
-0.0002943560328
-0.000703682636
-8.946886003e-05
-0.0005579358312
-0.0002422645642
-9.77521966e-05
0.0003341691506
-0.000315132031
0.0007430356825
-0.0005885114749
0.0009273604034
-0.0008724214199
0.000952078875
-0.00113882812
0.0008826545607
-0.001372237707
0.0007644190447
-0.001564537253
0.0006229350909
-0.001711205712
0.0004697648672
-0.001809135254
0.0003088771449
-0.001855603075
0.0001409686737
-0.001847931185
-3.418270429e-05
-0.001783467847
-0.0002168283325
-0.001660144543
-0.0004057106898
-0.00147742884
-0.0005969391816
-0.001238257097
-0.0007808529825
-0.0009522286311
-0.0009373623737
-0.0006400730222
-0.001030431256
-0.0003383681308
-0.001005387596
-0.0001020604132
-0.0007942434869
-0.0003443249831
-0.0001101797949
0.000444348968
-0.0003555048966
0.0009883607604
-0.0006648753861
0.001236730909
-0.0009875104999
0.001274714004
-0.001292076653
0.001187220752
-0.001561049973
0.001033392406
-0.001784954052
0.0008468391903
-0.001958201308
0.0006430121172
-0.002076711541
0.0004273873576
-0.002136769466
0.0002010265752
-0.002134645215
-3.630696138e-05
-0.002066472785
-0.0002850007292
-0.001929057627
-0.0005431257866
-0.001721002042
-0.0008049947343
-0.001445149195
-0.001056705822
-0.001112540483
-0.001269971115
-0.0007478178044
-0.001395154001
-0.0003947219233
-0.001358483409
-0.0001186658285
-0.001070299527
-0.0004629908104
-0.0001266565604
0.0005710055378
-0.0004073347081
0.001269038865
-0.0007607740016
0.001590170215
-0.00112964526
0.001643585275
-0.001479025927
0.001536601447
-0.001789537493
0.001343903998
-0.00205064506
0.001107946743
-0.002255946153
0.0008483131522
-0.002400500509
0.0005719416531
-0.002479524208
0.000280050235
-0.002487982676
-2.784848669e-05
-0.002420100852
-0.0003528825077
-0.002270697801
-0.0006925288084
-0.002036328593
-0.001039363947
-0.001718504695
-0.001374529725
-0.001328882632
-0.001659593177
-0.0008963385559
-0.00182769806
-0.0004740668882
-0.001780754959
-0.0001426461658
-0.001401720292
-0.0006056369717
-0.0001485359375
0.0007195414708
-0.0004747767915
0.001595279685
-0.0008835457445
0.001998939198
-0.001309064885
0.002069104438
-0.001712316188
0.00193985276
-0.002072279916
0.00170386772
-0.002377832291
0.001413499069
-0.00262221902
0.001092699787
-0.002799954924
0.0007496774645
-0.002905210613
0.0003853058904
-0.002931717091
-1.341976675e-06
-0.002870544473
-0.0004140550588
-0.002713566221
-0.0008495070347
-0.002453380118
-0.001299550067
-0.0020879904
-0.001739919434
-0.001627883163
-0.002119700382
-0.001106038494
-0.002349542714
-0.0005882530004
-0.002298540448
-0.0001778004499
-0.00181217287
-0.0007834373827
-0.0001772294253
0.0008967708911
-0.0005616834153
0.001979733649
-0.001039433506
0.002476689318
-0.001533840626
0.00256351157
-0.002001256535
0.002407268634
-0.002419428925
0.002122040051
-0.002777403713
0.001771473784
-0.003068872221
0.001384168221
-0.003288489779
0.0009692949689
-0.003429938508
0.0005267546323
-0.003484253504
5.297305574e-05
-0.003440985389
-0.0004573231306
-0.003286004199
-0.001004488216
-0.003005371889
-0.001580182383
-0.002589913116
-0.002155378192
-0.002045176095
-0.00266443738
-0.001406482237
-0.002988236527
-0.0007557252101
-0.002949297565
-0.0002305042082
-0.002337393837
-0.001013941585
-0.0002148933259
0.001111664229
-0.0006732153164
0.002438055616
-0.001235924623
0.003039398628
-0.001812636148
0.003140223096
-0.002354734803
0.002949367239
-0.002839553868
0.002606859036
-0.003257518316
0.002189438162
-0.003604018993
0.001730668873
-0.003874981633
0.001240257621
-0.004064351305
0.0007161243486
-0.004162201201
0.0001508229703
-0.004154032435
-0.000465491934
-0.004019184983
-0.001139335738
-0.003733253229
-0.00186611417
-0.003273798641
-0.002614832736
-0.002633920575
-0.003304315466
-0.001845468311
-0.003776688794
-0.001008605304
-0.003786160564
-0.0003127276024
-0.003033271408
-0.001326669184
-0.000265215693
0.001376879942
-0.0008173577566
0.00299019766
-0.001483568403
0.003705609232
-0.002156421155
0.003813075837
-0.002782551535
0.0035754976
-0.00334040934
0.003164716807
-0.003823677339
0.002672706128
-0.00423136397
0.002138355497
-0.004562561393
0.001571455067
-0.004813303468
0.0009668664426
-0.004973896214
0.0003114157036
-0.005026656841
-0.0004127313657
-0.004942834305
-0.001223158273
-0.004683187347
-0.002125761005
-0.004203083429
-0.003094936581
-0.003469748237
-0.004037650635
-0.002497581417
-0.004748855637
-0.001401487318
-0.004882254621
-0.0004465687332
-0.003988190008
-0.001773237992
-0.0003346386237
0.00171151857
-0.001006744125
0.003662303168
-0.001797505341
0.004496370396
-0.002579109844
0.00459468032
-0.003294867907
0.00429125567
-0.003927002702
0.003796851603
-0.004475192031
0.003220895458
-0.004944726039
0.002607889471
-0.005340588896
0.001967317943
-0.00566377568
0.001290053258
-0.005907648866
0.0005552889307
-0.006053901841
-0.0002664783318
-0.006065957031
-0.001211102983
-0.005886209665
-0.002305508297
-0.005436872714
-0.003544273535
-0.004638766215
-0.004835757176
-0.003461642965
-0.005925978937
-0.002016810304
-0.006327087266
-0.0006696657931
-0.005335334554
-0.002442903746
-0.0004344346059
0.002145953155
-0.001260844776
0.004488713386
-0.002197954285
0.005433479894
-0.003095422112
0.005492148132
-0.003897124135
0.005092957687
-0.004593423065
0.004493150523
-0.005193700365
0.003821172771
-0.005712812901
0.003127002055
-0.006164981784
0.002419486892
-0.006559971585
0.001685043081
-0.006898604061
0.000893921427
-0.007167441847
2.359532907e-06
-0.007325440273
-0.001053104472
-0.007297755662
-0.002333192917
-0.006964901349
-0.003877127923
-0.006177456633
-0.005623201848
-0.004818595798
-0.007284839714
-0.002949107139
-0.008196575953
-0.001037035735
-0.00724740599
-0.003479939372
-0.0005840555381
0.002730008663
-0.001607440057
0.005512097954
-0.002706216455
0.006532256307
-0.003709993704
0.006495925365
-0.004572065758
0.005955029713
-0.005297993487
0.005219078274
-0.005911639841
0.004434819129
-0.006440914834
0.003656277064
-0.006912440961
0.002891013024
-0.007348474213
0.002121076339
-0.007762758641
0.001308205878
-0.008151227294
0.0003908282278
-0.008482499539
-0.0007218321863
-0.008671835192
-0.002143857307
-0.008562975652
-0.003985987455
-0.007923936801
-0.006262240604
-0.006506223338
-0.008702553085
-0.004234030295
-0.01046876909
-0.001607497666
-0.009873938756
-0.00508743714
-0.0008165056582
0.003546514302
-0.002079141503
0.006774733807
-0.003325393246
0.007778508076
-0.004380722448
0.007551254608
-0.005226830369
0.006801137632
-0.005896240306
0.005888488156
-0.006433508221
0.004972087016
-0.006882589979
0.004105358829
-0.007283833037
0.003292256079
-0.007672974856
0.002510218155
-0.008078845933
0.001714076941
-0.008516619738
0.0008286020385
-0.008973407798
-0.0002650441443
-0.009382424417
-0.001734840712
-0.00958249571
-0.0037859161
-0.00928531728
-0.006559419134
-0.008096285235
-0.00989158522
-0.005690994118
-0.01287406024
-0.002394836688
-0.01317009611
-0.007482273764
-0.001181914857
0.004728429165
-0.002690354097
0.008283173053
-0.003977531782
0.009065685791
-0.004916834188
0.008490557
-0.005558801563
0.007443104995
-0.005983748764
0.006313435347
-0.006265209404
0.00525354766
-0.006464347642
0.004304497026
-0.006632250589
0.003460158994
-0.006813128515
0.002691096032
-0.007046430337
0.00194737878
-0.007366145131
0.001148316837
-0.00778949816
0.0001583088095
-0.008305509269
-0.001218829616
-0.008813319476
-0.003278105869
-0.009059236867
-0.006313501841
-0.008570743715
-0.01038007831
-0.00670071896
-0.01474408485
-0.0032511572
-0.016619658
-0.01073343105
-0.001745203528
0.006473632729
-0.003338259443
0.009876229003
-0.00430306343
0.01003048976
-0.004705933532
0.008893427108
-0.004744885934
0.007482057382
-0.004576327853
0.006144877242
-0.004306090004
0.004983309774
-0.004004875746
0.00400328274
-0.003721957206
0.003177240386
-0.003495387223
0.002464526051
-0.003360428595
0.001812420146
-0.003357177272
0.001145065435
-0.003539733254
0.000340864684
-0.003960805164
-0.0007977576166
-0.004660386343
-0.00257852465
-0.005562286956
-0.005411601227
-0.006311516155
-0.009630849268
-0.006027437783
-0.01502816322
-0.003668250113
-0.01897884553
-0.01440168127
-0.002431770522
0.008905403291
-0.003408030597
0.01085248909
-0.003088247718
0.009710706911
-0.002097715632
0.007902894995
-0.0008734964217
0.006257838163
0.0003682800904
0.004903100725
0.001526778108
0.003824811738
0.002558571072
0.002971489817
0.003447103187
0.00228870831
0.004185398638
0.001726230598
0.004763760475
0.001234058275
0.005156545069
0.000752280807
0.005302968458
0.0001944413438
0.005092776991
-0.0005875660707
0.004341617144
-0.001827364944
0.002843178563
-0.003913162513
0.0005777559343
-0.007365426498
-0.001861423062
-0.01258898431
-0.002599749794
-0.01824051869
-0.01700143116
-0.001986315198
0.01089171848
0.0001306401837
0.008735533724
0.003675549078
0.006165797999
0.007041635047
0.004536809001
0.009981717525
0.003317755677
0.01244998654
0.002434831728
0.01447825061
0.001796547745
0.01612519044
0.001324549986
0.01744909107
0.0009648076445
0.01849669325
0.0006786284221
0.01929630231
0.0004344492662
0.01984641413
0.0002021689979
0.02009675056
-5.589518494e-05
0.0199356916
-0.0004265072345
0.01910565236
-0.0009973255811
0.01717604402
-0.001983554282
0.01358347971
-0.003772862159
0.007963500304
-0.006969005009
0.00180026945
-0.01207728778
-0.01520116179
0.0108917185
0.01962725222
0.0257930502
0.0303298592
0.03364761494
0.03608244671
0.03787899445
0.03920354441
0.0401683521
0.04084698058
0.04128142979
0.04148359876
0.0414277038
0.04100119649
0.04000387101
0.03802031675
0.03424745464
0.02727844951
0.01520116175
)
;

boundaryField
{
    movingWall
    {
        type            calculated;
        value           uniform 0;
    }
    fixedWalls
    {
        type            calculated;
        value           uniform 0;
    }
    frontAndBack
    {
        type            empty;
    }
}


// ************************************************************************* //
