/*--------------------------------*- C++ -*----------------------------------*\
  =========                 |
  \\      /  F ield         | OpenFOAM: The Open Source CFD Toolbox
   \\    /   O peration     | Website:  https://openfoam.org
    \\  /    A nd           | Version:  13
     \\/     M anipulation  |
\*---------------------------------------------------------------------------*/
FoamFile
{
    format      ascii;
    class       vectorField;
    location    "1";
    object      U_all;
}
// * * * * * * * * * * * * * * * * * * * * * * * * * * * * * * * * * * * * * //


400
(
(-8.474260968e-05 0.0001103384468 0)
(-0.0008069669356 0.0004614887967 -6.01108585e-24)
(-0.001945022155 0.000765424961 0)
(-0.003155631078 0.000954854735 0)
(-0.004264929173 0.001027088476 -6.556289776e-25)
(-0.005215327993 0.0009938031193 2.613430781e-24)
(-0.005990681455 0.0008727673855 4.487183864e-23)
(-0.006590430932 0.0006820281586 6.567741153e-23)
(-0.007015326423 0.0004393294832 -7.635040612e-25)
(-0.007262852657 0.0001623441579 -1.281937221e-23)
(-0.007328882146 -0.0001310833882 1.646119293e-23)
(-0.007205088071 -0.0004195518401 -1.553477358e-22)
(-0.006880013179 -0.0006835483734 -1.792081808e-22)
(-0.006342414814 -0.0009009248076 -2.097365257e-22)
(-0.005580732516 -0.001047701031 1.408374447e-23)
(-0.004591362097 -0.001098650805 -1.538799506e-23)
(-0.003397156238 -0.001029591252 -1.049646186e-21)
(-0.002078187109 -0.0008258393879 0)
(-0.0008425692152 -0.0004930833798 4.413306816e-24)
(-8.203845698e-05 -0.0001113210865 -5.626193163e-22)
(-0.0002160049525 0.0009532494607 5.842940218e-26)
(-0.00204597418 0.002684709762 6.10422495e-24)
(-0.00469898648 0.003793532621 2.611215148e-27)
(-0.007545346289 0.004266667428 6.922320244e-25)
(-0.01018168168 0.004258109269 -1.419558849e-24)
(-0.01245736977 0.003906918927 -3.033881559e-23)
(-0.01431839584 0.00331203677 4.611420873e-23)
(-0.01575345918 0.002539111595 -6.40773355e-23)
(-0.01676143235 0.001636059646 4.17454737e-23)
(-0.01733843527 0.0006444903719 1.464649378e-23)
(-0.01747317156 -0.0003946624822 -1.795410324e-23)
(-0.01714848077 -0.001436044274 -1.495869279e-24)
(-0.01634206958 -0.002432286986 9.411153023e-23)
(-0.01502827753 -0.003327477986 -6.778997021e-24)
(-0.01318757538 -0.004051526206 1.430098021e-23)
(-0.01082628555 -0.004509342807 -5.173717732e-22)
(-0.008017129749 -0.004569580075 5.473504683e-22)
(-0.004957959418 -0.004068165676 -8.741191394e-24)
(-0.002120684879 -0.002850559602 8.961513956e-24)
(-0.0002160397766 -0.0009800323287 0)
(-0.0002224533274 0.002353437533 -4.716379332e-26)
(-0.002760400147 0.005864933356 -1.011475295e-23)
(-0.006376041984 0.00782236664 -1.174947466e-23)
(-0.01029103097 0.008476534732 2.982170568e-25)
(-0.01395719692 0.008223726905 -2.929728265e-25)
(-0.01715113946 0.007383972829 1.166290709e-24)
(-0.01977904247 0.006164604357 -4.44127268e-23)
(-0.02181206756 0.004685970003 -3.446658906e-24)
(-0.02324125092 0.003021674936 -4.378569388e-23)
(-0.02405738771 0.001227143064 0)
(-0.02424378645 -0.0006453598877 0)
(-0.02377541779 -0.002540700996 8.206576057e-23)
(-0.02262089223 -0.004393975952 8.903298183e-23)
(-0.02074817258 -0.006123270827 -6.821532896e-24)
(-0.01813884497 -0.007612165645 2.407078552e-22)
(-0.01481817637 -0.008681356678 5.018720823e-22)
(-0.01091024506 -0.009056367685 5.361445595e-22)
(-0.006707499484 -0.008362793034 1.741090529e-23)
(-0.002852656664 -0.006200275564 -8.9566113e-24)
(-0.000224134129 -0.002413008835 0)
(-0.0001880277628 0.004043908585 2.614568175e-23)
(-0.003180524084 0.009633073371 1.054292585e-23)
(-0.007455739192 0.01254503201 1.145536235e-23)
(-0.01213240657 0.01336891136 0)
(-0.01655715997 0.01280079766 0)
(-0.02044962358 0.01137715429 0)
(-0.023680229 0.009431666699 -1.541275564e-24)
(-0.02619955279 0.007146262231 2.870929441e-23)
(-0.0279856479 0.004620446893 0)
(-0.02901934349 0.001920083417 1.300379412e-23)
(-0.02927479088 -0.0008966178557 1.1382956e-24)
(-0.02871735955 -0.003766784925 -1.141485754e-24)
(-0.02730664704 -0.006611630509 0)
(-0.02500537432 -0.009321448411 2.154900384e-22)
(-0.02179854191 -0.01172502775 -2.339203199e-22)
(-0.01773175203 -0.01354085642 -2.727377925e-22)
(-0.01297690665 -0.01432146797 -5.447872725e-22)
(-0.007908636682 -0.01343869327 -7.299537433e-26)
(-0.003309127569 -0.01018918055 -5.934431519e-22)
(-0.0001941612455 -0.004140824009 0)
(-0.0001566458326 0.005939488009 -2.620153233e-23)
(-0.003534081035 0.01385661324 8.82420268e-25)
(-0.008371932262 0.01785020673 -8.622766274e-25)
(-0.01371151651 0.01887675596 0)
(-0.01880788365 0.01796900806 1.223024822e-26)
(-0.02333346852 0.01590376389 -1.205685371e-26)
(-0.02712705082 0.0131548535 -1.677939007e-23)
(-0.03011842451 0.009972379799 -4.833567267e-23)
(-0.03227012411 0.006483736014 -1.806870833e-23)
(-0.03354948135 0.002764602416 -1.301892373e-23)
(-0.0339175941 -0.001122438298 0)
(-0.03332585569 -0.005108356247 2.723597978e-24)
(-0.03172011321 -0.009098913192 9.972825419e-23)
(-0.02905287791 -0.01295070427 -2.292966469e-22)
(-0.02530733336 -0.01642444401 1.533114193e-23)
(-0.0205446232 -0.01911341165 5.447815419e-22)
(-0.01498125571 -0.02036393499 -8.834272853e-24)
(-0.009074204834 -0.01925384073 0)
(-0.003750813955 -0.01473691532 -3.560632194e-23)
(-0.0001708006106 -0.006099249267 6.196334447e-22)
(-0.000142578107 0.008055553173 1.432127195e-22)
(-0.003955345858 0.01858464868 -8.403306504e-25)
(-0.009410807926 0.02381184971 0)
(-0.01546458969 0.02509352919 0)
(-0.02127749223 0.02383488742 -4.725051487e-23)
(-0.0264799505 0.02107713374 -2.744950396e-23)
(-0.03088390952 0.01744767901 1.860962863e-23)
(-0.03440122709 0.01327101939 2.101416184e-23)
(-0.03697944219 0.008704341864 1.636853232e-23)
(-0.03857073173 0.003832627086 1.088189346e-23)
(-0.03911952319 -0.001278663389 -1.644336707e-23)
(-0.03855681111 -0.006555968771 -3.884112328e-23)
(-0.03680548648 -0.01188758077 2.676966448e-24)
(-0.03379624618 -0.01708925185 -2.351174617e-22)
(-0.02949694048 -0.02183679092 0)
(-0.02397219017 -0.02556799183 -2.890752144e-22)
(-0.01747830896 -0.02737794931 9.459574518e-24)
(-0.01056459908 -0.02599574592 0)
(-0.004341880214 -0.01998278621 6.361552776e-22)
(-0.0001694476629 -0.008340100968 -1.297719337e-21)
(-0.0001499988846 0.01045869366 -1.421111954e-22)
(-0.004520122968 0.0239479588 2.414191024e-22)
(-0.01074433208 0.03058303475 1.164586242e-22)
(-0.01765810184 0.03217342475 2.257410957e-24)
(-0.02431437955 0.03054513016 -3.993452016e-23)
(-0.03030428144 0.02703463698 2.844765692e-23)
(-0.03541932509 0.02243863599 -9.127288677e-25)
(-0.03955962684 0.01716193198 4.513061943e-25)
(-0.04266168932 0.01139185689 -9.420048001e-25)
(-0.04466335274 0.005219868219 -1.040281611e-23)
(-0.04549013796 -0.001290046595 1.534436289e-23)
(-0.04504444023 -0.00806646811 4.281343228e-23)
(-0.04321217792 -0.01498077784 -6.839776261e-24)
(-0.03988324223 -0.02180346335 3.748955069e-22)
(-0.03498585137 -0.02810692206 -8.193391475e-24)
(-0.02856484131 -0.03313359046 0)
(-0.020905074 -0.03566169522 0)
(-0.01266394844 -0.03398607833 1.122965535e-23)
(-0.005205017124 -0.02619417551 -1.147843539e-23)
(-0.0001972646935 -0.01098240128 -7.516981136e-23)
(-0.0001808433866 0.01324537911 0)
(-0.005276575613 0.03013113702 1.220486437e-22)
(-0.01248160315 0.03837121538 5.242617531e-23)
(-0.02045942405 0.04031312038 0)
(-0.02813401607 0.03827505206 8.498262906e-23)
(-0.0350596851 0.03393189684 0)
(-0.04101674777 0.02826979995 -3.889093528e-23)
(-0.04590386871 0.0217797132 1.086982897e-24)
(-0.04965466589 0.01467680976 0)
(-0.05219679771 0.007051181344 0)
(-0.0534383837 -0.001047547539 1.031983725e-24)
(-0.05324385166 -0.009551443483 1.796142216e-24)
(-0.05144281065 -0.01833745883 -2.090380835e-22)
(-0.04785755427 -0.02713125114 -9.382968452e-25)
(-0.04233669151 -0.0353845083 8.815887767e-24)
(-0.03486232418 -0.04209339088 -1.129689714e-23)
(-0.02571905045 -0.0456223072 1.147491261e-23)
(-0.01568477998 -0.04369275405 0)
(-0.006480565262 -0.03377364949 -6.320831839e-24)
(-0.0002637642694 -0.01420922831 1.608127955e-21)
(-0.0002398555196 0.01653649691 0)
(-0.006273479946 0.03736238001 -1.04193835e-22)
(-0.01471981757 0.047426097 -4.190526347e-22)
(-0.0240058313 0.04974000683 -2.262499948e-22)
(-0.03290046405 0.04721852023 0)
(-0.04092697636 0.04193511986 1.716765176e-22)
(-0.04786885256 0.03509202153 3.419936999e-23)
(-0.05363964094 0.02727265471 -5.79809986e-25)
(-0.05818512391 0.01871506064 5.76939492e-25)
(-0.06143542896 0.009495628566 0)
(-0.06327352417 -0.0003683452549 -4.72837897e-24)
(-0.06353007487 -0.01084434867 -2.800259286e-24)
(-0.06196787836 -0.02183465816 1.071689258e-22)
(-0.05828992076 -0.03304048082 -1.325354367e-22)
(-0.0522058988 -0.04378732791 3.499452536e-22)
(-0.0435581619 -0.05276692014 0)
(-0.03256174976 -0.05779029834 0)
(-0.02010132108 -0.05577766273 0)
(-0.008401063983 -0.04331708338 0)
(-0.0003913414915 -0.0182975551 -8.481117625e-22)
(-0.0003381347609 0.02048613743 0)
(-0.007583200312 0.04592079522 -2.443760142e-22)
(-0.01758357338 0.05803998448 5.833790957e-22)
(-0.02845432405 0.06070591097 2.1764482e-22)
(-0.03878067286 0.05757761724 0)
(-0.048068865 0.05120925033 -1.623823581e-22)
(-0.05612846449 0.04305369785 -1.001239273e-23)
(-0.06291268018 0.03379416687 7.947692664e-23)
(-0.06840235974 0.02368396144 2.528862442e-23)
(-0.07254866346 0.01276771982 -1.793691162e-24)
(-0.0752342249 0.001002361682 2.339892628e-24)
(-0.07625142781 -0.01166687472 2.656948763e-24)
(-0.07527244877 -0.02520897742 -1.035750879e-22)
(-0.07184402106 -0.03935341531 0)
(-0.06544541156 -0.05332467985 -3.501155628e-22)
(-0.05564438476 -0.06546066587 -1.453197532e-23)
(-0.04243477531 -0.07283119728 1.4748466e-23)
(-0.02671675362 -0.07118495589 -6.048458872e-22)
(-0.01139604816 -0.05574165949 1.714966996e-23)
(-0.0006296001539 -0.02369726077 0)
(-0.000498214386 0.02530391736 0)
(-0.009326362538 0.05615752868 0)
(-0.02125880226 0.07055426216 -3.258115692e-22)
(-0.03401675432 0.07347868108 -1.16526493e-23)
(-0.04597420851 0.06954421757 9.740191993e-24)
(-0.05665038313 0.06189427327 -9.625167127e-24)
(-0.06591700459 0.05227547733 -6.811397842e-24)
(-0.07380360762 0.04147923024 -6.986755398e-23)
(-0.08036164382 0.02976459256 1.970917733e-23)
(-0.08559796311 0.01712070551 2.059309098e-24)
(-0.08942546265 0.003402590796 2.396798315e-24)
(-0.09162103815 -0.01158401494 0)
(-0.09176657446 -0.0279718773 5.653431024e-23)
(-0.08920848939 -0.04562156199 0)
(-0.08308026751 -0.06374845841 2.180097827e-22)
(-0.07246295743 -0.08033928489 -5.381898524e-22)
(-0.05683615027 -0.0915055506 0)
(-0.03684958299 -0.09124622656 5.875746129e-22)
(-0.01624251732 -0.07249977901 -7.296709273e-22)
(-0.001080788675 -0.03118531059 6.866651341e-22)
(-0.0007639970846 0.03129618372 0)
(-0.01170728925 0.06852913906 6.30148236e-22)
(-0.02602822651 0.08536431234 -1.622560473e-23)
(-0.04098251237 0.08832146386 5.77789124e-22)
(-0.0547153492 0.08326318832 -1.448400874e-23)
(-0.06681699896 0.07405968895 1.178898132e-23)
(-0.07727562023 0.06280058384 -1.168134113e-23)
(-0.08624742001 0.05039424703 -3.999252764e-24)
(-0.09390315443 0.03709644322 -1.089285879e-22)
(-0.1003562271 0.02281741301 -1.42076786e-24)
(-0.10560344 0.007265816784 2.652504352e-26)
(-0.1094606817 -0.009971440907 9.078503397e-25)
(-0.1114561584 -0.0293219795 7.440393699e-23)
(-0.110723482 -0.050960391 0)
(-0.1059365678 -0.07431065426 -4.125520518e-22)
(-0.09540594072 -0.09715108739 5.051975134e-22)
(-0.07761419739 -0.114471371 1.929969334e-23)
(-0.05237998715 -0.1177035052 0)
(-0.02422135906 -0.09585177493 7.188009538e-22)
(-0.001942377037 -0.04212715794 -6.75543262e-22)
(-0.001220997589 0.03893950937 1.073492195e-23)
(-0.01506849764 0.08364094303 -6.018876935e-22)
(-0.0323028318 0.1029079709 -8.208966057e-22)
(-0.04970589092 0.1054393849 -5.42520695e-22)
(-0.0652069196 0.09875571357 0)
(-0.0785730997 0.08761512481 1.610311853e-23)
(-0.08998634878 0.07449686063 -3.009475798e-23)
(-0.09979226406 0.06043147327 1.999126495e-23)
(-0.1083385305 0.04566448424 6.688253463e-23)
(-0.1159077151 0.03001042636 -2.33320366e-24)
(-0.1226549234 0.01299255536 0)
(-0.128528156 -0.006108223169 6.853225585e-25)
(-0.1330953661 -0.02815659007 -3.422518207e-23)
(-0.1353430977 -0.05393885002 -1.027092791e-22)
(-0.1334518657 -0.0834833887 2.084102064e-22)
(-0.1246953797 -0.114771703 -2.992903084e-22)
(-0.1059390385 -0.1417553964 -2.637052167e-23)
(-0.07517416922 -0.1523789515 2.679359052e-23)
(-0.03707983873 -0.1290032438 -1.112845212e-21)
(-0.003567909914 -0.0588371599 0)
(-0.002035700624 0.04900614727 -1.398949497e-23)
(-0.01996648213 0.1022728978 -1.023362052e-21)
(-0.04060868051 0.1235814606 7.782744255e-22)
(-0.06046983879 0.124829303 4.984256329e-22)
(-0.07735128188 0.115740384 4.176133967e-22)
(-0.09138529848 0.1021192147 4.104759726e-22)
(-0.1030542326 0.08685636942 -1.929855867e-23)
(-0.1129631176 0.07109506066 -1.501651745e-22)
(-0.1216902583 0.05506363433 7.422232631e-23)
(-0.1297433714 0.03847765194 0)
(-0.137512743 0.02066222475 0)
(-0.1451657344 0.00053997299 3.339651366e-23)
(-0.152483679 -0.0233667864 3.779402555e-23)
(-0.1585250971 -0.05276674287 7.46827249e-23)
(-0.1611352862 -0.08888414268 7.867032653e-24)
(-0.1565503818 -0.1306978582 -3.764086239e-24)
(-0.1395606871 -0.1717589283 4.674098294e-22)
(-0.1050592916 -0.1960172466 -6.146809322e-22)
(-0.05631419405 -0.1755697084 1.111317882e-21)
(-0.006534221634 -0.08489140396 -1.45179665e-21)
(-0.00354047222 0.06279757179 0)
(-0.02725108364 0.1253662185 1.708196067e-21)
(-0.05138528103 0.1475173049 0)
(-0.07295862639 0.1459472404 -1.074342539e-21)
(-0.08990641976 0.1332597261 1.192898282e-22)
(-0.1030621356 0.1163973359 -3.827524597e-22)
(-0.1133576595 0.09861388409 -2.953955378e-22)
(-0.121727166 0.08111386346 4.048967509e-22)
(-0.1290046056 0.0640843881 -6.287895666e-23)
(-0.1359288015 0.04714504621 0)
(-0.1431375282 0.02944406046 0)
(-0.1511099448 0.009559259335 2.541015237e-23)
(-0.1599868155 -0.01467624695 -3.361866229e-23)
(-0.1692332515 -0.04612173115 1.877962821e-23)
(-0.1769445756 -0.08783025701 -2.410672596e-23)
(-0.1789552392 -0.1409016787 3.025622395e-22)
(-0.1683114444 -0.1999636967 -2.022319838e-23)
(-0.1358591448 -0.245887787 6.600383021e-22)
(-0.08103817688 -0.2373894535 9.020561308e-22)
(-0.0116274841 -0.1249172106 1.449057545e-21)
(-0.006332614801 0.08236303615 0)
(-0.03802809917 0.1534506555 2.003070941e-22)
(-0.06419127617 0.1736151434 -4.38170686e-23)
(-0.08468709893 0.166649607 6.443145786e-22)
(-0.09824497796 0.1486935743 -5.619661195e-22)
(-0.1070162976 0.1276844786 3.533487421e-23)
(-0.1125959956 0.1070253061 -1.250771769e-22)
(-0.1162953886 0.08783111408 -1.743916487e-22)
(-0.1191566502 0.07016490256 1.11095728e-22)
(-0.1220507664 0.05353017491 0)
(-0.1257490239 0.03694486695 0)
(-0.1309584173 0.018759151 -5.890947954e-23)
(-0.1382230817 -0.003695186364 0)
(-0.1478145487 -0.03447417872 -9.626397196e-23)
(-0.159002317 -0.07861734574 5.907394649e-23)
(-0.1687677103 -0.1404215483 -1.893830366e-23)
(-0.1702975651 -0.2178906808 -4.651368208e-22)
(-0.1507886601 -0.2923412172 3.850910118e-23)
(-0.103999542 -0.3095622703 -9.473998702e-22)
(-0.01925930549 -0.1826651915 0)
(-0.01160708976 0.111800794 0)
(-0.05292571178 0.1863825033 -8.108717801e-22)
(-0.07473471671 0.1984859164 -5.660388657e-22)
(-0.08635402012 0.1818808581 5.024204102e-22)
(-0.08874365139 0.1565355511 -3.164812176e-24)
(-0.08631053571 0.1306631656 -4.579960215e-23)
(-0.08143820269 0.1072134579 4.750695645e-22)
(-0.07568023829 0.08683189556 -1.819182038e-23)
(-0.07004454152 0.06923675671 -1.079422514e-22)
(-0.0652497223 0.05371986873 1.677234673e-23)
(-0.06189794481 0.0392030671 -1.510530965e-23)
(-0.06062995796 0.02401419755 -1.138529916e-23)
(-0.06231364258 0.005421134423 1.029490127e-22)
(-0.06800632767 -0.02108675395 1.082727742e-22)
(-0.07883403414 -0.06194225091 -4.699984714e-23)
(-0.09497336893 -0.1248018779 3.620129982e-23)
(-0.1134466124 -0.2134620361 2.33404338e-22)
(-0.1206817445 -0.3162081656 7.619380713e-23)
(-0.1068887314 -0.3739917061 1.719999353e-21)
(-0.02708619083 -0.2569319722 2.64700787e-21)
(-0.01919815421 0.1531250013 -4.488357469e-23)
(-0.06750437366 0.2139157401 4.515911787e-23)
(-0.06494714489 0.2075500394 1.100119537e-21)
(-0.05006677211 0.1770137452 4.808647473e-23)
(-0.0274687596 0.144310651 0)
(-0.003883730928 0.1154521133 4.872304158e-23)
(0.01833311285 0.09159279473 -2.235732245e-22)
(0.03821822587 0.07230550854 -8.507686215e-23)
(0.05548290753 0.05671929731 2.969652333e-23)
(0.07009540996 0.04385010435 -7.459433851e-24)
(0.08204371561 0.03259235902 1.512321164e-23)
(0.09113191377 0.02150127735 -2.885531491e-23)
(0.09664665979 0.008356925553 -1.988654005e-23)
(0.09714794753 -0.01056574619 5.299422535e-23)
(0.08982193914 -0.04128185398 0)
(0.0708521409 -0.09298680988 -5.428601228e-23)
(0.03537658596 -0.1758898842 1.179441741e-22)
(-0.008430207731 -0.2922766206 0)
(-0.05922260158 -0.3981691897 -3.231210911e-21)
(-0.02541122721 -0.3361563937 -2.587706504e-21)
(-0.02424653869 0.2334670962 -9.682115438e-22)
(-0.03548072102 0.2300566352 -1.515026347e-22)
(0.03906773794 0.1814160874 -2.627067996e-22)
(0.1032667175 0.1377202396 -1.251832576e-22)
(0.161675612 0.102812217 -5.926981685e-23)
(0.2102002649 0.07662543361 1.415326571e-22)
(0.2496450476 0.05735838552 -1.782540597e-22)
(0.281488017 0.04314894284 1.292683516e-22)
(0.3071860145 0.03254042576 -6.695362112e-23)
(0.3279351326 0.02439705512 8.153321916e-25)
(0.3445806732 0.01773610841 7.671826584e-24)
(0.3575137674 0.01153128128 3.49592814e-23)
(0.3663183928 0.004453492692 -7.08088526e-23)
(0.3698081226 -0.005525448661 -5.403066533e-23)
(0.364485713 -0.02217019467 -6.153558245e-24)
(0.3447451413 -0.05232001317 0)
(0.2987298252 -0.1075184217 -1.572957644e-22)
(0.2221394062 -0.2057877066 6.718717224e-22)
(0.08009351198 -0.3392993664 1.379757138e-21)
(0.01817527058 -0.3667407495 2.012238545e-21)
(0.2157778789 0.1361609522 1.005900281e-21)
(0.2831766456 0.1009790899 0)
(0.4394980464 0.05972631433 -3.073191836e-22)
(0.5369812221 0.0388258655 -2.394532541e-22)
(0.6025966617 0.02539608565 0)
(0.6490276974 0.01659162969 -9.138899762e-23)
(0.6823287395 0.01092872508 8.430067118e-23)
(0.7064946892 0.007280484368 -1.778627097e-23)
(0.7243178928 0.004894791126 2.760892842e-23)
(0.737640001 0.003284282662 1.663300931e-23)
(0.7475859815 0.002100736699 0)
(0.7547093852 0.001050182508 -1.349763912e-23)
(0.7588837994 -0.0001954986266 0)
(0.7591374653 -0.001860606184 6.180155779e-24)
(0.752138699 -0.004865382981 -2.057485995e-25)
(0.7338451151 -0.01027563331 -5.164489814e-23)
(0.6892839709 -0.02146496348 -2.013069879e-22)
(0.6115498013 -0.04046177158 -5.742486217e-22)
(0.416327499 -0.0924671251 0)
(0.2687915486 -0.1527705863 -1.962964307e-21)
)


// ************************************************************************* //
