# Selection       : all
# Cells           : 400
# Volume          : 1.0670236902e+00
# Time            	minMag(p)
0                 	0.0000000000e+00
0.01              	3.9662092434e-10
0.02              	5.0252399065e-09
0.03              	8.3178038956e-09
0.04              	7.5517823438e-09
0.05              	1.2911506529e-09
0.06              	7.3000953825e-09
0.07              	7.0712639141e-10
0.08              	1.7928172542e-09
0.09              	3.0121323353e-09
0.1               	3.7699813799e-09
0.11              	4.7501577576e-09
0.12              	8.0648341503e-09
0.13              	1.2484245235e-08
0.14              	1.1914175507e-08
0.15              	1.2016988009e-08
0.16              	1.1731397616e-08
0.17              	1.2896814499e-08
0.18              	1.2271903025e-08
0.19              	1.3243328484e-08
0.2               	8.2865241293e-09
0.21              	1.0586199495e-08
0.22              	1.0703447588e-08
0.23              	1.0106052271e-08
0.24              	6.5434905169e-09
0.25              	1.0281987311e-08
0.26              	4.0977033681e-09
0.27              	2.0701093258e-09
0.28              	4.2862491436e-09
0.29              	6.0246649742e-09
0.3               	5.6912014124e-09
0.31              	4.8551021022e-09
0.32              	4.0783402547e-09
0.33              	3.6939340098e-09
0.34              	3.3165668468e-09
0.35              	3.0892152506e-09
0.36              	3.0042708225e-09
0.37              	2.9671957338e-09
0.38              	6.4591067712e-09
0.39              	4.6708602632e-09
0.4               	4.3250738476e-09
0.41              	4.5619394512e-09
0.42              	4.9578598744e-09
0.43              	5.3458075907e-09
0.44              	8.2049129047e-09
0.45              	8.7488217528e-09
0.46              	8.8309037493e-09
0.47              	8.5793833328e-09
0.48              	8.2725909895e-09
0.49              	7.9504127093e-09
0.5               	6.3035954471e-09
0.51              	7.4182806759e-09
0.52              	7.3906358463e-09
0.53              	6.4869283142e-09
0.54              	5.9441538834e-09
0.55              	5.9000834425e-09
0.56              	5.4051328099e-09
0.57              	5.3671238001e-09
0.58              	5.3519089480e-09
0.59              	4.9321883838e-09
0.6               	4.1811966052e-10
0.61              	6.6131277593e-09
0.62              	4.4610816755e-09
0.63              	2.0083486131e-09
0.64              	2.2450025196e-09
0.65              	5.2232311936e-09
0.66              	5.5038592632e-09
0.67              	3.1417742361e-09
0.68              	1.8936005516e-09
0.69              	1.2883563708e-09
0.7               	9.2194064778e-10
0.71              	5.0692326886e-10
0.72              	1.0838963850e-09
0.73              	3.4555249605e-10
0.74              	1.8854620021e-08
0.75              	4.1400381999e-09
0.76              	1.2968531583e-09
0.77              	1.8588834212e-08
0.78              	6.3621216722e-09
0.79              	3.2577408140e-09
0.8               	1.8073973332e-08
0.81              	1.0231620411e-09
0.82              	1.6289489923e-08
0.83              	1.8769346242e-08
0.84              	1.9377945930e-08
0.85              	1.9647835480e-08
0.86              	1.9822115933e-08
0.87              	1.9943447325e-08
0.88              	2.0021307612e-08
0.89              	2.0062470838e-08
0.9               	2.0049343873e-08
0.91              	1.9267951455e-08
0.92              	2.4911147834e-08
0.93              	1.6777948449e-09
0.94              	1.5081619729e-08
0.95              	1.6601349908e-08
0.96              	1.9177722031e-08
0.97              	1.9470737269e-08
0.98              	1.8741874365e-08
0.99              	1.7379470647e-08
1                 	1.5426263586e-08
1.01              	1.0988645855e-08
1.02              	2.0125393117e-08
1.03              	1.3089113792e-08
1.04              	1.1514684343e-08
1.05              	1.0782010391e-08
1.06              	9.9955362877e-09
1.07              	9.2083201928e-09
1.08              	8.4398881428e-09
1.09              	7.6868728651e-09
1.1               	6.9362653261e-09
1.11              	6.1611387505e-09
1.12              	5.2990608372e-09
1.13              	3.7800538618e-09
1.14              	2.1629663140e-08
1.15              	6.4084104965e-10
1.16              	1.7890596474e-08
1.17              	1.0258805158e-08
1.18              	9.1916522018e-09
1.19              	2.7118989830e-09
1.2               	4.3761918392e-09
1.21              	7.5354346960e-09
1.22              	7.4780407384e-09
1.23              	7.6051366849e-09
1.24              	7.8873706728e-09
1.25              	8.1388900834e-09
1.26              	8.3198986570e-09
1.27              	8.4555779181e-09
1.28              	8.5799674279e-09
1.29              	8.7260719870e-09
1.3               	8.9628077921e-09
1.31              	9.8983361836e-09
1.32              	8.1280164768e-09
1.33              	7.3493231296e-09
1.34              	8.9727990228e-09
1.35              	9.4726262808e-09
1.36              	9.6680747262e-09
1.37              	9.7551743246e-09
1.38              	9.8386287611e-09
1.39              	9.9388371829e-09
1.4               	1.0053000112e-08
1.41              	1.0174644886e-08
1.42              	1.0297909453e-08
1.43              	1.0416868814e-08
1.44              	1.0521775601e-08
1.45              	1.0586402796e-08
1.46              	1.0544131614e-08
1.47              	1.0834838850e-08
1.48              	1.3743768432e-08
1.49              	1.1722378785e-08
1.5               	1.1303728720e-08
1.51              	1.1344975455e-08
1.52              	1.1485085870e-08
1.53              	1.1644631142e-08
1.54              	1.1807773377e-08
1.55              	1.1986547871e-08
1.56              	1.2247707295e-08
1.57              	1.2862582975e-08
1.58              	1.4924823307e-08
1.59              	1.9225301084e-08
1.6               	1.1305834710e-08
1.61              	1.1885198480e-08
1.62              	1.3310107115e-08
1.63              	1.3999489702e-08
1.64              	1.4814119036e-08
1.65              	1.8611865592e-08
1.66              	1.6748487378e-08
1.67              	1.0067754958e-08
1.68              	1.4519542985e-08
1.69              	1.5216075905e-08
1.7               	1.3617177396e-08
1.71              	1.3142701713e-08
1.72              	1.3635067030e-08
1.73              	1.4932399637e-08
1.74              	1.7146224004e-08
1.75              	1.3109092353e-08
1.76              	1.2539003366e-08
1.77              	1.2589473628e-08
1.78              	1.2709890426e-08
1.79              	1.2820834950e-08
1.8               	1.2891273672e-08
1.81              	1.2941047735e-08
1.82              	1.3073168582e-08
1.83              	1.3231151196e-08
1.84              	1.4023262571e-08
1.85              	1.6354172508e-08
1.86              	1.5191691091e-08
1.87              	1.1754105369e-08
1.88              	1.3292232088e-08
1.89              	1.4005976199e-08
1.9               	1.4759899614e-08
1.91              	1.3491453461e-08
1.92              	1.3002950015e-08
1.93              	1.2883691677e-08
1.94              	1.2799151798e-08
1.95              	1.2732976506e-08
1.96              	1.2680624034e-08
1.97              	1.2635827300e-08
1.98              	1.2594264734e-08
1.99              	1.2553612571e-08
2                 	1.2512695941e-08
2.01              	2.2596829516e-08
2.02              	2.3427439540e-08
2.03              	2.3363741473e-08
2.04              	2.3197091117e-08
2.05              	2.3017352819e-08
2.06              	2.2829605719e-08
2.07              	2.2617107717e-08
2.08              	1.4041056927e-08
2.09              	1.4150331317e-08
2.1               	2.1571878913e-08
2.11              	2.1898066050e-08
2.12              	2.1729250121e-08
2.13              	2.1537072866e-08
2.14              	2.1349281190e-08
2.15              	2.1162719822e-08
2.16              	2.0975291780e-08
2.17              	2.0786467231e-08
2.18              	2.0596312482e-08
2.19              	2.0405039032e-08
2.2               	2.0212863002e-08
2.21              	2.0019973573e-08
2.22              	1.9826516737e-08
2.23              	1.9632618671e-08
2.24              	1.9438364036e-08
2.25              	1.9243831747e-08
2.26              	1.9049075640e-08
2.27              	1.8854151140e-08
2.28              	1.8659090461e-08
2.29              	1.8463924793e-08
2.3               	1.8268672613e-08
2.31              	1.8073340979e-08
2.32              	1.7877918267e-08
2.33              	1.7682376734e-08
2.34              	1.7486662506e-08
2.35              	1.7290660000e-08
2.36              	1.7094164479e-08
2.37              	1.6896759694e-08
2.38              	1.6697608567e-08
2.39              	1.6494796027e-08
2.4               	1.6282995850e-08
2.41              	1.6042318972e-08
2.42              	1.5639294403e-08
2.43              	1.0921403040e-08
2.44              	1.9686942158e-08
2.45              	1.5805995609e-08
2.46              	1.5124606559e-08
2.47              	1.4850353835e-08
2.48              	1.4666064986e-08
2.49              	1.4499646973e-08
2.5               	1.4331223766e-08
2.51              	1.4159926531e-08
2.52              	1.4003049849e-08
2.53              	1.3912339584e-08
2.54              	1.3222464164e-08
2.55              	1.3327326210e-08
2.56              	1.3226917029e-08
2.57              	1.3056795534e-08
2.58              	1.2868529294e-08
2.59              	1.2674602685e-08
2.6               	1.2479131643e-08
2.61              	1.2283525464e-08
2.62              	1.2088194455e-08
2.63              	1.1893154288e-08
2.64              	1.1698279214e-08
2.65              	1.1503399468e-08
2.66              	1.1308347788e-08
2.67              	1.1112965282e-08
2.68              	1.0917097407e-08
2.69              	1.0720594338e-08
2.7               	1.0523308686e-08
2.71              	1.0325090915e-08
2.72              	1.0125776684e-08
2.73              	9.9251972800e-09
2.74              	9.7231638072e-09
2.75              	9.5194738054e-09
2.76              	9.3138957909e-09
2.77              	9.1061744645e-09
2.78              	8.8960238445e-09
2.79              	8.6831192907e-09
2.8               	8.4670940169e-09
2.81              	8.2475308867e-09
2.82              	8.0239431509e-09
2.83              	7.7957876767e-09
2.84              	7.5624192868e-09
2.85              	7.3231137641e-09
2.86              	7.0770057515e-09
2.87              	6.8230916582e-09
2.88              	6.5601923991e-09
2.89              	6.2869160610e-09
2.9               	6.0016033207e-09
2.91              	5.7022739474e-09
2.92              	5.3865428342e-09
2.93              	5.0515246388e-09
2.94              	4.6937125385e-09
2.95              	4.3088065427e-09
2.96              	3.8915374004e-09
2.97              	3.4353942184e-09
2.98              	1.3120063975e-08
2.99              	3.7757733736e-08
3                 	3.8358775497e-08
3.01              	3.8908969999e-08
3.02              	3.6536931548e-08
3.03              	3.5426174810e-08
3.04              	3.2511262890e-08
3.05              	3.1001324693e-08
3.06              	2.7551365541e-08
3.07              	2.5970124747e-08
3.08              	2.6025369436e-08
3.09              	3.2280959955e-08
3.1               	4.6788204212e-08
3.11              	5.2864829354e-08
3.12              	1.8309272688e-08
3.13              	1.3370105011e-08
3.14              	2.0550081807e-09
3.15              	7.8473516854e-10
3.16              	2.6287094159e-08
3.17              	2.7538725060e-08
3.18              	4.1611776753e-08
3.19              	4.2841906530e-08
3.2               	5.1837464482e-08
3.21              	5.5578133298e-08
3.22              	6.1784779544e-08
3.23              	6.6067024418e-08
3.24              	7.0659344748e-08
3.25              	3.8785778870e-08
3.26              	3.6232534372e-08
3.27              	3.5830033673e-08
3.28              	3.5751167357e-08
3.29              	3.5467059021e-08
3.3               	3.5185622981e-08
3.31              	3.4942563357e-08
3.32              	9.9660931140e-09
3.33              	7.1099400393e-09
3.34              	6.7656944345e-09
3.35              	6.6515995189e-09
3.36              	6.7476708938e-09
3.37              	1.3228339247e-09
3.38              	6.7807218585e-09
3.39              	5.9729004538e-09
3.4               	5.9734106572e-09
3.41              	5.9371274093e-09
3.42              	5.8135313552e-09
3.43              	5.6692308003e-09
3.44              	5.5322020411e-09
3.45              	5.4082904907e-09
3.46              	5.2964306411e-09
3.47              	5.1942585456e-09
3.48              	5.0996601226e-09
3.49              	5.0110539070e-09
3.5               	4.9273228952e-09
3.51              	4.8476932874e-09
3.52              	4.7716298918e-09
3.53              	4.6987391925e-09
3.54              	4.6287289435e-09
3.55              	4.5613784811e-09
3.56              	4.4965167410e-09
3.57              	4.4340046523e-09
3.58              	4.3737205635e-09
3.59              	4.3155633680e-09
3.6               	4.2594421321e-09
3.61              	2.5748611388e-08
3.62              	2.7974193942e-08
3.63              	2.7980130804e-08
3.64              	2.7881803595e-08
3.65              	2.7751495046e-08
3.66              	2.7625129410e-08
3.67              	2.7499617250e-08
3.68              	2.7376466325e-08
3.69              	2.7255488282e-08
3.7               	2.7136665949e-08
3.71              	2.7019885151e-08
3.72              	2.6905033125e-08
3.73              	2.6792003602e-08
3.74              	2.6680688183e-08
3.75              	2.6570990641e-08
3.76              	2.6462816232e-08
3.77              	2.6356081381e-08
3.78              	2.6250701875e-08
3.79              	2.6146598011e-08
3.8               	2.6043695407e-08
3.81              	2.5941924488e-08
3.82              	2.5841217220e-08
3.83              	2.5741511314e-08
3.84              	2.5642749875e-08
3.85              	2.5544872470e-08
3.86              	2.5447826150e-08
3.87              	2.5351579605e-08
3.88              	2.5256116852e-08
3.89              	2.5161341304e-08
3.9               	2.5067213536e-08
3.91              	2.4973678504e-08
3.92              	2.4880705840e-08
3.93              	2.4788252216e-08
3.94              	2.4696289718e-08
3.95              	2.4604784331e-08
3.96              	2.4513707580e-08
3.97              	2.4423042260e-08
3.98              	2.4332763278e-08
3.99              	2.4242853559e-08
4                 	2.4153299291e-08
4.01              	2.4064094378e-08
4.02              	2.3975240925e-08
4.03              	2.3886747467e-08
4.04              	2.3798632246e-08
4.05              	2.3710934002e-08
4.06              	2.4498379363e-08
4.07              	2.3840767489e-08
4.08              	2.3260071065e-08
4.09              	2.3504751234e-08
4.1               	2.3305526164e-08
4.11              	2.3226457989e-08
4.12              	2.3156600136e-08
4.13              	2.3071531661e-08
4.14              	2.2999425475e-08
4.15              	2.2931243783e-08
4.16              	2.2871831158e-08
4.17              	2.2826018265e-08
4.18              	2.2800478926e-08
4.19              	2.2807297818e-08
4.2               	2.2866882899e-08
4.21              	2.3015649667e-08
4.22              	2.3321772198e-08
4.23              	2.3921690699e-08
4.24              	2.5119006923e-08
4.25              	2.7713915152e-08
4.26              	3.4435786579e-08
4.27              	1.6669444541e-08
4.28              	2.0480630752e-08
4.29              	1.9199154544e-08
4.3               	2.7454081367e-08
4.31              	2.7126993048e-08
4.32              	2.5383543386e-08
4.33              	2.1747606958e-08
4.34              	2.0942280216e-08
4.35              	2.1034743807e-08
4.36              	2.1110710956e-08
4.37              	2.1089074572e-08
4.38              	2.1027059894e-08
4.39              	2.0958036847e-08
4.4               	2.0891968485e-08
4.41              	2.0829814059e-08
4.42              	2.0770763235e-08
4.43              	2.0714417954e-08
4.44              	2.0661196508e-08
4.45              	2.0612258790e-08
4.46              	2.0569496639e-08
4.47              	2.0535682928e-08
4.48              	2.0514871122e-08
4.49              	2.0513145329e-08
4.5               	2.0539988433e-08
4.51              	2.0610685723e-08
4.52              	2.0750842766e-08
4.53              	2.1005305514e-08
4.54              	2.1457780939e-08
4.55              	2.2284126130e-08
4.56              	2.3952931527e-08
4.57              	2.8243665197e-08
4.58              	1.8901313959e-08
4.59              	3.3879526199e-08
4.6               	1.5614954598e-08
4.61              	2.3497261078e-08
4.62              	2.0421873498e-08
4.63              	2.0354669921e-08
4.64              	1.9935788243e-08
4.65              	1.9988369942e-08
4.66              	2.0365864656e-08
4.67              	2.0910585574e-08
4.68              	2.1674454726e-08
4.69              	2.2858271882e-08
4.7               	2.4909155971e-08
4.71              	2.8740801481e-08
4.72              	2.8463863663e-08
4.73              	4.7987231150e-08
4.74              	5.1567530774e-08
4.75              	2.9171198410e-08
4.76              	1.9222592413e-08
4.77              	1.8672490859e-08
4.78              	1.7800352899e-08
4.79              	1.7645793984e-08
4.8               	1.7790992013e-08
4.81              	1.7827641487e-08
4.82              	1.7765460133e-08
4.83              	1.7670099224e-08
4.84              	1.7573490726e-08
4.85              	1.7484629289e-08
4.86              	1.7404235114e-08
4.87              	1.7331447456e-08
4.88              	1.7265927469e-08
4.89              	1.7208344860e-08
4.9               	1.7160575628e-08
4.91              	1.7126117578e-08
4.92              	1.7111038387e-08
4.93              	1.7126022848e-08
4.94              	1.7190848898e-08
4.95              	1.7344978504e-08
4.96              	1.7676423847e-08
4.97              	1.8420502410e-08
4.98              	2.0443637970e-08
4.99              	2.0325474410e-08
5                 	2.1289163671e-08
5.01              	1.2178836569e-08
5.02              	1.6124031603e-08
5.03              	1.7313544085e-08
5.04              	4.3647011044e-08
5.05              	4.5451351620e-08
5.06              	4.5305825945e-08
5.07              	4.5070900764e-08
5.08              	4.4835698966e-08
5.09              	4.4522690768e-08
5.1               	1.9312648636e-08
5.11              	1.6993346453e-08
5.12              	1.7244249201e-08
5.13              	1.8631343575e-08
5.14              	1.8991460027e-08
5.15              	2.1301463638e-08
5.16              	2.3392164800e-08
5.17              	3.9652013798e-08
5.18              	4.0466657532e-08
5.19              	4.2855791643e-08
5.2               	1.9220557593e-08
5.21              	2.0315267308e-08
5.22              	1.9292255627e-08
5.23              	2.5538302650e-08
5.24              	2.1736970667e-08
5.25              	1.7103408879e-08
5.26              	1.2247697522e-08
5.27              	3.9064908182e-08
5.28              	4.5881170807e-08
5.29              	4.5159180280e-08
5.3               	4.3043979492e-08
5.31              	4.1386132749e-08
5.32              	4.0277840828e-08
5.33              	3.9549647318e-08
5.34              	3.9046316505e-08
5.35              	3.8667274753e-08
5.36              	3.8354456759e-08
5.37              	3.8077464622e-08
5.38              	3.7820992223e-08
5.39              	3.7577445080e-08
5.4               	3.7342926243e-08
5.41              	3.7115265685e-08
5.42              	3.6893122066e-08
5.43              	3.6675580799e-08
5.44              	3.6461962848e-08
5.45              	3.6251736780e-08
5.46              	3.6044484084e-08
5.47              	3.5839877574e-08
5.48              	3.5637642689e-08
5.49              	3.5437566680e-08
5.5               	3.5239468789e-08
5.51              	3.5043206942e-08
5.52              	3.4848658790e-08
5.53              	3.4655728504e-08
5.54              	3.4464329371e-08
5.55              	3.4274392576e-08
5.56              	3.4085856729e-08
5.57              	3.3898674889e-08
5.58              	3.3712803263e-08
5.59              	3.3528193919e-08
5.6               	3.3344824253e-08
5.61              	3.3162657543e-08
5.62              	3.2981667742e-08
5.63              	3.2801830211e-08
5.64              	3.2623129614e-08
5.65              	3.2445536789e-08
5.66              	3.2269039707e-08
5.67              	3.2093620106e-08
5.68              	3.1919263379e-08
5.69              	3.1745964442e-08
5.7               	3.1573705429e-08
5.71              	3.1402459214e-08
5.72              	3.1232219415e-08
5.73              	3.1062975870e-08
5.74              	3.0894716989e-08
5.75              	3.0727432906e-08
5.76              	3.0561114823e-08
5.77              	3.0395753129e-08
5.78              	3.0231342390e-08
5.79              	3.0067880521e-08
5.8               	2.9905360850e-08
5.81              	2.9743786072e-08
5.82              	2.9583171133e-08
5.83              	2.9423536069e-08
5.84              	2.9421811724e-08
5.85              	2.9231110547e-08
5.86              	2.8982041180e-08
5.87              	2.8809737637e-08
5.88              	2.8659473482e-08
5.89              	2.8508565751e-08
5.9               	2.8356251616e-08
5.91              	2.8203705771e-08
5.92              	2.8051812034e-08
5.93              	2.7900911343e-08
5.94              	2.7751038862e-08
5.95              	2.7602151218e-08
5.96              	2.7454219964e-08
5.97              	2.7324173724e-08
5.98              	2.7747218672e-08
5.99              	2.7143949567e-08
6                 	2.6867163591e-08
6.01              	2.6737887060e-08
6.02              	2.6604315174e-08
6.03              	2.6463051791e-08
6.04              	2.6318643660e-08
6.05              	2.6175526866e-08
6.06              	2.6034474788e-08
6.07              	2.5894903331e-08
6.08              	2.5756418785e-08
6.09              	2.5618906486e-08
6.1               	2.5482340175e-08
6.11              	2.5346691034e-08
6.12              	2.5211939988e-08
6.13              	2.5078056649e-08
6.14              	2.4945026316e-08
6.15              	2.4812841928e-08
6.16              	2.4681489504e-08
6.17              	2.4550970315e-08
6.18              	2.4421285090e-08
6.19              	2.4292434130e-08
6.2               	2.4164416743e-08
6.21              	2.4037244242e-08
6.22              	2.3910921042e-08
6.23              	2.3785461065e-08
6.24              	2.3660866373e-08
6.25              	2.3537165522e-08
6.26              	2.3414369019e-08
6.27              	2.3292500065e-08
6.28              	2.3171586943e-08
6.29              	2.3051662458e-08
6.3               	2.2932767015e-08
6.31              	2.2814945520e-08
6.32              	2.2698254968e-08
6.33              	2.2582768667e-08
6.34              	2.2468569194e-08
6.35              	2.2355763160e-08
6.36              	2.2244473964e-08
6.37              	2.2134863974e-08
6.38              	2.2027137370e-08
6.39              	2.1921538978e-08
6.4               	2.1818389351e-08
6.41              	1.4506374149e-08
6.42              	2.1621209770e-08
6.43              	2.1528414509e-08
6.44              	2.1440666325e-08
6.45              	2.1359242659e-08
6.46              	2.1285914120e-08
6.47              	2.1223188962e-08
6.48              	2.1174690268e-08
6.49              	2.1145803665e-08
6.5               	2.1144795131e-08
6.51              	2.1184826420e-08
6.52              	2.1287910541e-08
6.53              	2.1493230528e-08
6.54              	2.1876881304e-08
6.55              	2.2605930326e-08
6.56              	2.4114013627e-08
6.57              	2.7714436244e-08
6.58              	3.7697396809e-08
6.59              	3.2176977634e-08
6.6               	3.4337926266e-08
6.61              	2.1170082175e-08
6.62              	2.3716292251e-08
6.63              	2.3426206346e-08
6.64              	2.1954702856e-08
6.65              	2.7375041921e-08
6.66              	2.1009527134e-08
6.67              	2.3104226096e-08
6.68              	2.4989470562e-08
6.69              	2.3791489781e-08
6.7               	2.3525638121e-08
6.71              	2.3295132645e-08
6.72              	2.3127055634e-08
6.73              	2.3012235396e-08
6.74              	2.2955959258e-08
6.75              	2.2978632610e-08
6.76              	2.3117158004e-08
6.77              	2.3443852557e-08
6.78              	2.4108136202e-08
6.79              	1.9407386153e-08
6.8               	1.8681855987e-08
6.81              	2.8087450622e-08
6.82              	3.1673799556e-09
6.83              	3.4757011250e-08
6.84              	1.6201126481e-08
6.85              	2.6266556885e-08
6.86              	2.3280702754e-08
6.87              	2.7569677966e-08
6.88              	2.5415316825e-08
6.89              	1.7352987085e-08
6.9               	2.3415920869e-08
6.91              	6.8481693841e-09
6.92              	2.1817179622e-08
6.93              	5.1020843989e-09
6.94              	1.5439962242e-08
6.95              	1.0605332056e-08
6.96              	1.1058788549e-08
6.97              	1.0566780510e-08
6.98              	1.0284945539e-08
6.99              	1.0017258464e-08
7                 	9.7974036003e-09
7.01              	9.5740183095e-09
7.02              	9.3852646216e-09
7.03              	9.1972613304e-09
7.04              	9.0287564105e-09
7.05              	8.8632035974e-09
7.06              	8.7096552736e-09
7.07              	8.5595409370e-09
7.08              	8.4174063713e-09
7.09              	8.2786205367e-09
7.1               	3.3861531850e-10
7.11              	1.1309573221e-08
7.12              	2.9861327085e-09
7.13              	1.0979753046e-08
7.14              	2.9398205434e-09
7.15              	1.0698908200e-08
7.16              	3.0978039635e-09
7.17              	1.0447220110e-08
7.18              	3.2509541505e-09
7.19              	1.0203398781e-08
7.2               	3.3932579313e-09
7.21              	9.9673894308e-09
7.22              	3.5269582205e-09
7.23              	9.7384700564e-09
7.24              	3.6534861883e-09
7.25              	3.2042564083e-09
7.26              	1.0996979355e-09
7.27              	4.8359482222e-10
7.28              	7.2038488020e-10
7.29              	5.7187656194e-10
7.3               	4.7912283708e-10
7.31              	4.2087697862e-10
7.32              	3.4336331897e-10
7.33              	2.6928161668e-10
7.34              	1.9843962606e-10
7.35              	1.2803099207e-10
7.36              	5.8828686990e-11
7.37              	9.1462945634e-12
7.38              	7.6051618558e-11
7.39              	1.4188419264e-10
7.4               	2.0666544843e-10
7.41              	2.7043094216e-10
7.42              	3.3320328772e-10
7.43              	3.9500638950e-10
7.44              	4.5586005858e-10
7.45              	5.1579266760e-10
7.46              	5.7481969650e-10
7.47              	6.3296345430e-10
7.48              	6.9024544866e-10
7.49              	7.4667843169e-10
7.5               	8.0228504173e-10
7.51              	8.5707998043e-10
7.52              	9.1108246152e-10
7.53              	9.6430120013e-10
7.54              	1.0167593068e-09
7.55              	1.0684648931e-09
7.56              	1.1194393455e-09
7.57              	1.1696898246e-09
7.58              	1.2192335160e-09
7.59              	1.2680828931e-09
7.6               	1.3162521767e-09
7.61              	1.3637563471e-09
7.62              	1.4105974733e-09
7.63              	1.4567957616e-09
7.64              	1.5023593488e-09
7.65              	1.5473020606e-09
7.66              	1.5916321500e-09
7.67              	1.6353686271e-09
7.68              	1.6785157908e-09
7.69              	1.7210894286e-09
7.7               	1.7630984487e-09
7.71              	1.8045556288e-09
7.72              	1.8454708333e-09
7.73              	1.8858549147e-09
7.74              	1.9257217297e-09
7.75              	1.9650812465e-09
7.76              	2.0039460231e-09
7.77              	2.0423275335e-09
7.78              	2.0802370302e-09
7.79              	2.1176888224e-09
7.8               	2.1546962436e-09
7.81              	2.1912733493e-09
7.82              	2.2274284465e-09
7.83              	2.2631845234e-09
7.84              	2.2985491427e-09
7.85              	2.3335393584e-09
7.86              	2.3681745711e-09
7.87              	2.4024671597e-09
7.88              	2.4364416155e-09
7.89              	2.4701115426e-09
7.9               	2.5034992362e-09
7.91              	2.5366305696e-09
7.92              	2.5695285230e-09
7.93              	2.6022157852e-09
7.94              	2.6347301495e-09
7.95              	2.6670945641e-09
7.96              	3.4103678691e-09
7.97              	1.5376397963e-09
7.98              	9.9742223317e-10
7.99              	1.3779524338e-09
8                 	9.6138221233e-10
8.01              	1.1573492650e-09
8.02              	1.2918978791e-09
8.03              	1.2735330061e-09
8.04              	1.3485301143e-09
8.05              	1.4084793473e-09
8.06              	1.4665198513e-09
8.07              	1.5184984647e-09
8.08              	1.5804079877e-09
8.09              	1.6343610562e-09
8.1               	1.6929501232e-09
8.11              	1.7481307437e-09
8.12              	1.7532085944e-09
8.13              	1.6527748950e-09
8.14              	1.7847506701e-09
8.15              	2.0857521482e-09
8.16              	2.1822713302e-09
8.17              	2.1577501969e-09
8.18              	2.2564755354e-09
8.19              	2.3270699847e-09
8.2               	2.4003460128e-09
8.21              	2.1490534526e-09
8.22              	1.9316402844e-09
8.23              	2.5306507722e-09
8.24              	3.0004237897e-08
8.25              	2.0475713767e-08
8.26              	8.2179065010e-10
8.27              	2.8393243234e-09
8.28              	2.6019114387e-09
8.29              	2.3921767805e-09