/*--------------------------------*- C++ -*----------------------------------*\
  =========                 |
  \\      /  F ield         | OpenFOAM: The Open Source CFD Toolbox
   \\    /   O peration     | Website:  https://openfoam.org
    \\  /    A nd           | Version:  13
     \\/     M anipulation  |
\*---------------------------------------------------------------------------*/
FoamFile
{
    format      ascii;
    class       scalarField;
    location    "13.08";
    object      p_all;
}
// * * * * * * * * * * * * * * * * * * * * * * * * * * * * * * * * * * * * * //


400
(
-1.968756335e-07
-0.0005412965177
-0.0008777086548
-0.001000174593
-0.0009172212243
-0.0006610768767
-0.0002691214577
0.0002228552172
0.0007785687013
0.001357846702
0.001915360728
0.002398700339
0.002752810413
0.002924835779
0.002873258081
0.002579772579
0.00206404928
0.001382733747
0.0007297691302
0.0001379136163
0.000581354138
6.737479817e-06
-0.0003513000481
-0.0004885352816
-0.0004531676379
-0.0002717170316
2.647497763e-05
0.0004121560996
0.0008540013539
0.001314970906
0.001755555705
0.002124871485
0.00237281533
0.002452238927
0.002329242337
0.001994706032
0.001474672372
0.0008333796763
0.0002414605883
-0.0004177151448
0.0009399767491
0.0003029792728
-9.217508197e-05
-0.0002332493648
-0.0002218195014
-8.788484968e-05
0.0001444318814
0.0004537001161
0.0008161625497
0.001200471293
0.001572921477
0.001881764121
0.002076797619
0.002109483892
0.001944691316
0.001572291154
0.001015638798
0.0003305453968
-0.0003622476345
-0.001193958882
0.0009603238631
0.0002503017347
-0.0001932549418
-0.0003398899382
-0.0003430047034
-0.0002393065691
-4.967557874e-05
0.0002129387047
0.0005346472151
0.0008945959556
0.001253383637
0.001566768618
0.001774783787
0.001817306423
0.001645629435
0.001236215453
0.000600423981
-0.0002156028279
-0.001123870361
-0.002266238616
0.0004663499698
-0.0002908519754
-0.0007627230026
-0.000908199927
-0.0009218782936
-0.0008449803122
-0.0006929560772
-0.000466919838
-0.000167177265
0.0001965200112
0.0005939457709
0.0009769268561
0.001274826757
0.001407336002
0.001298496421
0.0008952917548
0.0001835192158
-0.000805141854
-0.002006498913
-0.003524611136
-0.00069189052
-0.001464926173
-0.001946899992
-0.002090926735
-0.002124643901
-0.002090383771
-0.001994063833
-0.001819556278
-0.001546615821
-0.001165582805
-0.0006921952122
-0.0001708505474
0.0003164235414
0.0006606862292
0.000740963469
0.0004499002194
-0.0002776694922
-0.00143996835
-0.003000752053
-0.004995334028
-0.002650643193
-0.003405923901
-0.003890813101
-0.004047979079
-0.004133871153
-0.004188660776
-0.00420388416
-0.00413910235
-0.003943379437
-0.003574153017
-0.003017603399
-0.002299432778
-0.001505051313
-0.0007756423349
-0.0002979159184
-0.0002712005996
-0.0008573022087
-0.002122612777
-0.004084261978
-0.006665440822
-0.005518966961
-0.006229421918
-0.006720860252
-0.006924936273
-0.007123651894
-0.007352922481
-0.007585820843
-0.007750106356
-0.007751505485
-0.007495501017
-0.006913459803
-0.005982030861
-0.004768394897
-0.003435676908
-0.00225266812
-0.001560093725
-0.00169173339
-0.002860656182
-0.005204720102
-0.008483400159
-0.009367356437
-0.01001165802
-0.01052181076
-0.01082213094
-0.01121903669
-0.01174511943
-0.01235372941
-0.0129352494
-0.01333937807
-0.01339631439
-0.01294380847
-0.01187997868
-0.01019240294
-0.00803332837
-0.005749619902
-0.003871905811
-0.003012598562
-0.003669873328
-0.006247557885
-0.01029862493
-0.01421279641
-0.01477252877
-0.01531307418
-0.01575832602
-0.01644375268
-0.01740475747
-0.01857870954
-0.01981774537
-0.02090657147
-0.02157974037
-0.0215498858
-0.0205619716
-0.01846983791
-0.0153360268
-0.01153591425
-0.007805458862
-0.005151854781
-0.004566631774
-0.006988682405
-0.01177611122
-0.02001295756
-0.02046695193
-0.02103143134
-0.02163801764
-0.02266785231
-0.02417256278
-0.0260833979
-0.02821964495
-0.03029957742
-0.03194960475
-0.03272640708
-0.03216968686
-0.02992209664
-0.02584042692
-0.02021757916
-0.01393216473
-0.008453966528
-0.005514532645
-0.007017518582
-0.01226049809
-0.02668061745
-0.02699334114
-0.02752970825
-0.02823477496
-0.02957420777
-0.03163825693
-0.03436716708
-0.03755745141
-0.04086628197
-0.0438116265
-0.04578160212
-0.04607436126
-0.04407109966
-0.039292767
-0.03178716746
-0.02240354241
-0.01301078823
-0.006263494953
-0.005606032432
-0.0105676439
-0.0341315059
-0.03422511754
-0.03459536524
-0.03519742517
-0.03665939829
-0.0391420987
-0.04261122035
-0.04684939067
-0.0514581852
-0.05585459117
-0.05926822718
-0.06078502083
-0.05939433252
-0.05429906436
-0.04511822346
-0.03241327385
-0.01820382938
-0.006030459716
-0.001484184644
-0.004698688104
-0.04238940041
-0.04207222334
-0.04199187433
-0.04208410403
-0.04328075264
-0.0458509757
-0.04979518449
-0.05488064587
-0.06064556883
-0.06641113593
-0.07125593404
-0.07404503079
-0.07349299825
-0.06836969244
-0.05780201372
-0.04182393
-0.02223144671
-0.003074659689
0.00750517282
0.008478240056
-0.05178545524
-0.05055208054
-0.04947829644
-0.04837860816
-0.04871182997
-0.05087718853
-0.05489119644
-0.06048653259
-0.0670976279
-0.07394258057
-0.07994458472
-0.08376409737
-0.08385793982
-0.07860788222
-0.0666536124
-0.04736440502
-0.02199052081
0.005622907416
0.02482120078
0.0336124393
-0.06344138008
-0.05999294534
-0.05691732523
-0.05359198591
-0.05228517978
-0.05347420787
-0.05710499979
-0.06288710161
-0.06996732719
-0.07749854615
-0.08420499625
-0.08853257424
-0.08870011593
-0.0826877229
-0.06874628495
-0.04554861196
-0.01370270789
0.02446190095
0.05557874608
0.07738322176
-0.07999857209
-0.07090728122
-0.06397703047
-0.0570367906
-0.05329990777
-0.05306086487
-0.05606593191
-0.06168757567
-0.06900306212
-0.076854774
-0.08376585073
-0.08794147562
-0.08731568699
-0.07956041511
-0.06243966775
-0.0340531358
0.005514473244
0.05859968822
0.1058027564
0.1480429695
-0.1103599333
-0.08572856561
-0.07151041434
-0.05889443505
-0.05183605147
-0.04977783307
-0.0519565355
-0.05732198088
-0.06464167367
-0.07248067535
-0.07912632699
-0.08253729023
-0.08040436658
-0.06982555075
-0.04822769764
-0.0127628097
0.03816734756
0.1070674508
0.1779129543
0.2564078532
-0.1683278994
-0.09981686943
-0.07495275364
-0.05476334682
-0.04458040288
-0.0415175063
-0.04360662271
-0.04922681357
-0.05682832959
-0.06476751185
-0.07116713481
-0.07381550314
-0.07000951544
-0.05695869609
-0.03103039676
0.01188202047
0.07552262188
0.1663190681
0.2760747687
0.4376220765
-0.398321714
-0.1380166967
-0.07492583219
-0.04706878242
-0.03352804704
-0.02998135604
-0.03271111074
-0.03912985949
-0.04738818795
-0.05575111695
-0.06231648804
-0.06487144382
-0.06087923025
-0.04690787679
-0.0187475953
0.02990066498
0.1068905774
0.2333495343
0.4197992347
0.7799453602
)


// ************************************************************************* //
