/*--------------------------------*- C++ -*----------------------------------*\
  =========                 |
  \\      /  F ield         | OpenFOAM: The Open Source CFD Toolbox
   \\    /   O peration     | Website:  https://openfoam.org
    \\  /    A nd           | Version:  13
     \\/     M anipulation  |
\*---------------------------------------------------------------------------*/
FoamFile
{
    format      ascii;
    class       volScalarField;
    location    "14";
    object      p;
}
// * * * * * * * * * * * * * * * * * * * * * * * * * * * * * * * * * * * * * //

dimensions      [0 2 -2 0 0 0 0];

internalField   nonuniform List<scalar> 
400
(
-7.774001036e-07
-0.0005446891488
-0.0008833777074
-0.001007758476
-0.0009263682298
-0.0006714728321
-0.0002805209615
0.000210609926
0.0007655393591
0.001343993815
0.001900553324
0.002382664974
0.00273515861
0.002905101455
0.002850972362
0.002554567331
0.002035811802
0.001351509866
0.0006966181595
0.0001034565245
0.0005821323051
5.0475433e-06
-0.0003550987501
-0.0004942254897
-0.0004605869378
-0.0002807052325
1.604160852e-05
0.0004003680301
0.0008409136507
0.00130057469
0.001739737651
0.002107437834
0.002353475602
0.002430631139
0.002305014756
0.001967620018
0.001444714841
0.0008007992494
0.0002070239314
-0.0004532834193
0.0009420788576
0.0003025665012
-9.473404177e-05
-0.0002376846421
-0.0002281145
-9.605029694e-05
0.000134389563
0.0004418145272
0.0008024777912
0.001184850769
0.001555761267
0.001862776506
0.002055753376
0.002086093829
0.001918667255
0.001543445142
0.0009839798163
0.0002963218042
-0.0003983168299
-0.001231734544
0.0009631967431
0.0002504669215
-0.0001953616854
-0.0003439292057
-0.0003491215906
-0.000247682099
-6.042061269e-05
0.0001998365011
0.0005193085627
0.0008773192761
0.001233984937
0.001545400432
0.00175135083
0.001791586909
0.001617350529
0.001205151937
0.0005664962782
-0.0002522825338
-0.001162847805
-0.002307942815
0.0004684316672
-0.0002914853678
-0.0007656825168
-0.0009132248319
-0.0009293326998
-0.0008552362553
-0.0007062342853
-0.000483214423
-0.0001862933175
0.000174938545
0.0005702017246
0.000951283639
0.001247361193
0.001377941351
0.001266916021
0.0008612104552
0.0001466709129
-0.000844898728
-0.002049059676
-0.003570534708
-0.0006927537641
-0.001468303166
-0.001952583718
-0.002098910806
-0.002135592652
-0.002104903526
-0.002012499716
-0.001841893073
-0.001572518288
-0.001194465598
-0.0007233985138
-0.0002037610963
0.0002822300611
0.000625348683
0.0007043122828
0.0004115167371
-0.000318342269
-0.001483486573
-0.003047516856
-0.005046193071
-0.002657004683
-0.003414364204
-0.00390151712
-0.004061356419
-0.004150980986
-0.004210410064
-0.004230780411
-0.004171128714
-0.003980030139
-0.003614518489
-0.00306052478
-0.002343767276
-0.001549809542
-0.000820235393
-0.0003422717344
-0.0003157852085
-0.0009030336031
-0.002170639872
-0.004135702465
-0.006721541689
-0.005533438538
-0.006245345692
-0.006739005044
-0.006946285785
-0.007149756725
-0.007385063775
-0.007624716484
-0.007795758128
-0.007803217205
-0.007551952541
-0.006972807389
-0.006042607245
-0.004828345713
-0.003493684043
-0.002308163771
-0.001613419361
-0.001744138517
-0.00291401966
-0.005261133724
-0.008544712943
-0.009392195215
-0.01003717396
-0.01054950415
-0.01085368765
-0.0112565756
-0.01179035735
-0.01240763992
-0.01299787825
-0.01340983666
-0.01347287265
-0.01302420792
-0.01196123547
-0.01027193049
-0.008108893573
-0.005819886603
-0.003936804892
-0.003073507589
-0.003729387311
-0.006308942578
-0.01036459548
-0.01424947442
-0.01480899604
-0.01535163006
-0.01580141332
-0.01649408466
-0.01746450785
-0.01864911598
-0.01989888985
-0.02099737702
-0.02167803211
-0.02165266651
-0.0206657288
-0.01857099373
-0.01543139403
-0.01162324814
-0.007883984357
-0.005222680461
-0.004632769434
-0.007054511035
-0.01184540916
-0.02006182525
-0.02051463502
-0.02108096727
-0.02169254897
-0.0227306396
-0.0242462065
-0.02616936033
-0.02831797133
-0.03040898742
-0.03206749835
-0.03284922766
-0.03229329325
-0.0300423065
-0.02595350428
-0.02032064406
-0.01402371349
-0.008534432536
-0.005586736921
-0.007086394887
-0.01233074504
-0.02674072643
-0.02705123285
-0.02758892822
-0.02829897932
-0.02964708788
-0.03172277352
-0.03446493678
-0.03766829858
-0.04098870001
-0.04394251261
-0.04591683228
-0.04620902749
-0.04420176203
-0.03941543719
-0.03189900098
-0.02250282409
-0.0130972516
-0.006339125573
-0.005675235746
-0.01063523076
-0.03420063286
-0.03429098162
-0.03466160704
-0.03526791997
-0.03673813401
-0.03923236708
-0.04271479484
-0.04696555961
-0.05158535579
-0.05598901092
-0.05940527633
-0.06092032464
-0.05952299845
-0.05441851345
-0.04522666339
-0.03250985892
-0.01828829012
-0.006103902319
-0.001549283885
-0.004758962854
-0.04246423728
-0.04214281217
-0.04206139679
-0.04215631627
-0.04335987786
-0.04594074132
-0.04989777898
-0.05499397275
-0.06076878047
-0.066539587
-0.07138427679
-0.07416825085
-0.07360705458
-0.06847261303
-0.05789345654
-0.04190491601
-0.02230283939
-0.003137530077
0.00745027988
0.008430281727
-0.05186184985
-0.05062334418
-0.04954657884
-0.04844724118
-0.0487852935
-0.05095994432
-0.05498752368
-0.06058938852
-0.06721065296
-0.07405889957
-0.08005812966
-0.083869393
-0.08395046329
-0.07868646999
-0.0667189829
-0.04741990978
-0.02203875678
0.00557991034
0.02478322576
0.03358123132
-0.06351452675
-0.06006021819
-0.0569794244
-0.05365176688
-0.05234766645
-0.05354573781
-0.05720072522
-0.06296443276
-0.07006592444
-0.07760024895
-0.08430213343
-0.08861873249
-0.0887675778
-0.08274093746
-0.06878412091
-0.04557595346
-0.01372231641
0.02444360149
0.05556244246
0.07737072475
-0.08006313796
-0.07096535239
-0.06402753815
-0.0570823652
-0.05334645811
-0.05311473171
-0.05613315942
-0.06176387177
-0.06909012901
-0.07694389385
-0.083849988
-0.08801413263
-0.08737428605
-0.07959567423
-0.06245653589
-0.03405612219
0.005527410699
0.05859378748
0.1058057157
0.1480473879
-0.1104115796
-0.08577333928
-0.07154553981
-0.05892350385
-0.05186527233
-0.04981609311
-0.05200816921
-0.05738638231
-0.06471649271
-0.07255881235
-0.07919997447
-0.08259878265
-0.08044581423
-0.06984944591
-0.04823310286
-0.01275353703
0.03818600097
0.1070847144
0.1779307045
0.2564265713
-0.1683673282
-0.09985063274
-0.07497493718
-0.05477878275
-0.04459714133
-0.04154374507
-0.04364689651
-0.04928096277
-0.05689372104
-0.06483772837
-0.07123466237
-0.07387340613
-0.07005290823
-0.0569805516
-0.03103366593
0.01189363432
0.07554392465
0.1663430821
0.2760995292
0.4376452102
-0.3983603328
-0.1380476478
-0.07494450876
-0.04707942645
-0.03353924269
-0.03000140353
-0.03274482749
-0.03917765138
-0.04744755758
-0.05581633509
-0.06238041877
-0.06492706365
-0.06092107669
-0.04693189055
-0.01875440438
0.02990821979
0.1069080545
0.2333711475
0.419821951
0.7799671327
)
;

boundaryField
{
    movingWall
    {
        type            zeroGradient;
    }
    fixedWalls
    {
        type            zeroGradient;
    }
    frontAndBack
    {
        type            empty;
    }
}


// ************************************************************************* //
