/*--------------------------------*- C++ -*----------------------------------*\
  =========                 |
  \\      /  F ield         | OpenFOAM: The Open Source CFD Toolbox
   \\    /   O peration     | Website:  https://openfoam.org
    \\  /    A nd           | Version:  13
     \\/     M anipulation  |
\*---------------------------------------------------------------------------*/
FoamFile
{
    format      ascii;
    class       scalarField;
    location    "14";
    object      p_all;
}
// * * * * * * * * * * * * * * * * * * * * * * * * * * * * * * * * * * * * * //


400
(
7.306327752e-09
-0.0004249967135
-0.0009150868808
-0.001250624369
-0.001330068368
-0.001115323369
-0.0005944831774
0.0002292964973
0.001335612179
0.002678126994
0.004175202323
0.005705765879
0.007116358697
0.008242219051
0.008941997509
0.009139137809
0.008857596676
0.008239780252
0.007540086605
0.007061497498
0.0004276119961
-1.168292879e-05
-0.0004338433939
-0.0006902792656
-0.0007244269113
-0.0005151439632
-5.307951245e-05
0.000662320209
0.001617915692
0.002778125174
0.004076005868
0.005409176341
0.006645059205
0.007639674246
0.008268613977
0.008463850997
0.00824366278
0.007722931535
0.007100459211
0.006610512218
0.0009366522554
0.0003782256017
-6.985658409e-05
-0.0003054148986
-0.0003292291191
-0.0001459331107
0.0002483928266
0.0008594657219
0.00168530051
0.002704973843
0.003867408276
0.005084475746
0.006233736392
0.007174781651
0.007779709278
0.007970823546
0.007751102744
0.007211410764
0.0065131402
0.005872046499
0.001271844162
0.0005489448647
1.21972218e-05
-0.0002570533427
-0.0003092946145
-0.000175076488
0.0001440534295
0.0006607768414
0.001387473039
0.00232103038
0.003427240146
0.004628927524
0.005804008456
0.00679916049
0.007461372044
0.007681176647
0.007431134834
0.006779594214
0.005880625342
0.004985763968
0.00124526926
0.0003506874268
-0.0002977285302
-0.0006317859832
-0.0007431176844
-0.0006834546964
-0.0004563607324
-3.864299948e-05
0.0006005472995
0.001480354114
0.002587231164
0.003856265418
0.005162106318
0.006327567859
0.007155531003
0.007480467347
0.007222531747
0.006420069082
0.005240224186
0.004009679513
0.0007061195558
-0.0003506921183
-0.001116271899
-0.001534094718
-0.001731987057
-0.001778197693
-0.001674196463
-0.001381995463
-0.0008468624033
-2.015543936e-05
0.001114089421
0.002511716225
0.00404884208
0.005520066128
0.006666603019
0.007236114844
0.007060041512
0.006120786243
0.004602760157
0.002947239606
-0.0004775300697
-0.001680107095
-0.002562958526
-0.003081019515
-0.003396660447
-0.00359177236
-0.003662699829
-0.003552748348
-0.003176960183
-0.002446797499
-0.001301676481
0.0002534055823
0.00211229591
0.004047625335
0.005725448004
0.006768090292
0.006860314728
0.005871925684
0.003982739035
0.001794699533
-0.002420780627
-0.003748619285
-0.004747682653
-0.005384080401
-0.005856009904
-0.006258697074
-0.006582607179
-0.006750095183
-0.006639903222
-0.006110849652
-0.005036187766
-0.003352258655
-0.001114471906
0.001452261302
0.003938187955
0.005799160126
0.006489162177
0.005661527873
0.003422300786
0.0005833931404
-0.005218131602
-0.006646861806
-0.007759281755
-0.008531919298
-0.009203398317
-0.009885422138
-0.01056523235
-0.01114514268
-0.01146378738
-0.01131472991
-0.01047949079
-0.008785360943
-0.006184795106
-0.002848156773
0.0007664762627
0.003920581103
0.005732402417
0.005471903507
0.003019906819
-0.0005695561432
-0.008938229169
-0.01043848951
-0.01165423421
-0.01257122776
-0.01347793192
-0.0145103865
-0.01565963212
-0.01681325863
-0.01777048018
-0.01825093573
-0.01792020007
-0.01644947578
-0.01362148214
-0.009465894882
-0.004415816951
0.0006096500903
0.004292254617
0.005286813445
0.002973107165
-0.001385302005
-0.01362205611
-0.01515662731
-0.01644644926
-0.01748583216
-0.0186307539
-0.02005586045
-0.0217676318
-0.02364870093
-0.0254651166
-0.02686108972
-0.02736989365
-0.02646602826
-0.02369071067
-0.01881991003
-0.01213359306
-0.004641334536
0.001857003695
0.005137095122
0.003650963372
-0.001299938227
-0.01929259464
-0.02080887692
-0.02210174086
-0.02317734047
-0.02449191009
-0.02628141461
-0.02858274919
-0.03128536153
-0.03413197201
-0.0366974612
-0.03838050771
-0.03844081549
-0.03610437146
-0.03079593497
-0.02246918202
-0.01203619748
-0.00169865358
0.005228996404
0.005720264782
0.000734010402
-0.02598916739
-0.02739875011
-0.02854088699
-0.02945142035
-0.03074625527
-0.03275502796
-0.03555917401
-0.03906273588
-0.04299223358
-0.04686180427
-0.04994387012
-0.05128109669
-0.04977506927
-0.04441161769
-0.03465534774
-0.02105874062
-0.005967330734
0.006190942869
0.01035434445
0.006546347566
-0.03385264541
-0.03497466415
-0.0356532403
-0.03601202182
-0.03692748876
-0.03886034993
-0.04194001962
-0.04607891268
-0.05098168024
-0.05610198949
-0.06059579685
-0.06330780356
-0.06283412487
-0.05771142125
-0.04681953477
-0.03009271757
-0.009599172811
0.009422100864
0.01953602485
0.01913289511
-0.04331383775
-0.04372374283
-0.04332107266
-0.04246516054
-0.04244050457
-0.04385708596
-0.04686458415
-0.05135008384
-0.05696700651
-0.06308866295
-0.06875072685
-0.07261696857
-0.07301455576
-0.06808327139
-0.05613171141
-0.03633060561
-0.01000952378
0.01745041288
0.03639095652
0.04293961395
-0.05542795896
-0.0541361929
-0.05145812571
-0.04833958993
-0.04662544745
-0.04700250271
-0.04954675267
-0.05404551606
-0.06004196169
-0.06678329531
-0.073156838
-0.07764173505
-0.07832195297
-0.0729968558
-0.05948799929
-0.03621728078
-0.003457091078
0.03415002176
0.06542898189
0.08362300079
-0.07243796682
-0.06728699958
-0.05999460132
-0.0530588836
-0.0488019043
-0.04765717058
-0.04942410682
-0.05367167616
-0.05974569415
-0.06670584392
-0.07325205445
-0.07765343659
-0.0777402586
-0.07097869869
-0.05473429974
-0.02672229327
0.01399024475
0.06442183837
0.1129229162
0.148364519
-0.1012833594
-0.08548837006
-0.06838716384
-0.05546877716
-0.04794321749
-0.0450637512
-0.04601042336
-0.04997587977
-0.05601471038
-0.06295183626
-0.06929666181
-0.07309032364
-0.07188195787
-0.06275763834
-0.04250301515
-0.007949214822
0.04346508078
0.1116575782
0.1877362993
0.2546419868
-0.1735959512
-0.1128415767
-0.0728635127
-0.0518456943
-0.04151147568
-0.03764872612
-0.03848019197
-0.04272610646
-0.04908983562
-0.05617002432
-0.06239696528
-0.06569121231
-0.06333686259
-0.05205882026
-0.02798881611
0.01340062386
0.077727717
0.1712718989
0.2981008169
0.4477935215
-0.3534950366
-0.1531992278
-0.06931308413
-0.04250586446
-0.03153101834
-0.02758064836
-0.02893815463
-0.03400850032
-0.04117331043
-0.04888336089
-0.05543461665
-0.05870074296
-0.0559840717
-0.04393523579
-0.01807154158
0.02787194469
0.1039064285
0.2282169133
0.4297200829
0.7313202137
)


// ************************************************************************* //
