/*--------------------------------*- C++ -*----------------------------------*\
  =========                 |
  \\      /  F ield         | OpenFOAM: The Open Source CFD Toolbox
   \\    /   O peration     | Website:  https://openfoam.org
    \\  /    A nd           | Version:  13
     \\/     M anipulation  |
\*---------------------------------------------------------------------------*/
FoamFile
{
    format      ascii;
    class       surfaceScalarField;
    location    "14";
    object      phi;
}
// * * * * * * * * * * * * * * * * * * * * * * * * * * * * * * * * * * * * * //

dimensions      [0 3 -1 0 0 0 0];

internalField   nonuniform List<scalar> 
760
(
-1.320733867e-05
1.321606601e-05
-7.174766188e-05
5.854056493e-05
-0.0001613445359
8.959710148e-05
-0.0002639523338
0.0001026078055
-0.0003664377243
0.0001024852788
-0.0004592419858
9.280416551e-05
-0.000535157124
7.591508583e-05
-0.0005884813708
5.332421357e-05
-0.0006147636494
2.62822829e-05
-0.0006110439673
-3.719661422e-06
-0.0005762876563
-3.475628772e-05
-0.0005121767721
-6.41108646e-05
-0.0004235748185
-8.860195384e-05
-0.0003187799343
-0.0001047949013
-0.0002092280346
-0.0001095519228
-0.0001084932836
-0.0001007347702
-3.042780317e-05
-7.806547385e-05
1.37071156e-05
-4.413487739e-05
2.166988736e-05
-7.962686778e-06
2.166995537e-05
-6.834790947e-05
8.156420689e-05
-0.0002444246515
0.0002346176445
-0.0004906935492
0.0003358659528
-0.0007678982376
0.0003798123244
-0.001044483328
0.0003790702263
-0.001295765317
0.0003440860678
-0.001502413062
0.000282562794
-0.001649185269
0.0002000963923
-0.001724516659
0.0001016136791
-0.001721125515
-7.110778605e-06
-0.001636607135
-0.0001192746528
-0.001475499317
-0.0002252186865
-0.001249986392
-0.0003141148866
-0.0009804535091
-0.0003743277769
-0.0006947022901
-0.0003953031199
-0.0004253716273
-0.000370065441
-0.0002052701353
-0.0002981670453
-6.02514823e-05
-0.0001891536993
-7.276811278e-07
-6.748671759e-05
2.094232352e-05
-0.0001221743555
0.000203738806
-0.0004124005625
0.0005248438093
-0.00080367839
0.0007271436009
-0.001239549003
0.0008156827939
-0.001674539502
0.0008140606429
-0.002072183215
0.0007417297311
-0.002403167992
0.0006135475687
-0.002643930984
0.0004408594079
-0.002776270011
0.000233952754
-0.002788317312
4.93656218e-06
-0.0026751744
-0.0002324175394
-0.002442143646
-0.0004582494388
-0.002105616757
-0.0006506417913
-0.001694201063
-0.0007857434847
-0.00124789547
-0.0008416086952
-0.000814688662
-0.0008032721874
-0.0004438812463
-0.0006689743707
-0.0001761741179
-0.0004568607721
-3.229131405e-05
-0.0002113696132
-1.134896091e-05
-0.00017094819
0.0003746870014
-0.0005688535811
0.0009227490522
-0.001098919431
0.001257209307
-0.001687415972
0.001404179252
-0.002276590491
0.001403235115
-0.002820367065
0.001285506269
-0.003281186355
0.001074366867
-0.003628005402
0.0007876784907
-0.0038357526
0.000441700007
-0.003885935039
5.511904724e-05
-0.003769410336
-0.0003489422141
-0.003487975551
-0.0007396842057
-0.003058041979
-0.001080575359
-0.002512487593
-0.001331297884
-0.001900912756
-0.001453183558
-0.001286555377
-0.001417629597
-0.0007385547161
-0.001216975009
-0.0003194848159
-0.0008759305905
-7.099202476e-05
-0.000459862398
-8.234094418e-05
-0.000215604409
0.000590291281
-0.0007142286415
0.001421373194
-0.001376962341
0.001919942937
-0.002114084853
0.002141301716
-0.002857218937
0.002146369189
-0.003552511051
0.001980798392
-0.004155607533
0.001677463407
-0.004628530169
0.001260601195
-0.004938549581
0.0007517194887
-0.005058878299
0.0001754478095
-0.00497142186
-0.0004363986172
-0.004670033571
-0.001041072452
-0.004165528353
-0.001585080535
-0.003490033124
-0.002006793074
-0.002699885012
-0.002243331638
-0.001874614663
-0.002242899956
-0.001109335211
-0.001982254469
-0.0004991713093
-0.001486094428
-0.0001187792776
-0.0008402543868
-0.0002011201593
-0.0002557822545
0.0008460734502
-0.0008462043403
0.002011795262
-0.001632605582
0.002706344154
-0.002512019793
0.003020715892
-0.003407752316
0.003042101721
-0.004260241572
0.002833287677
-0.005019943213
0.002437165121
-0.005642662525
0.001883320577
-0.006087440725
0.001196497752
-0.006316871894
0.0004048790153
-0.00630005093
-0.0004532195583
-0.006017032646
-0.001324090706
-0.005466120342
-0.002135992822
-0.00467170288
-0.002801210522
-0.003691770458
-0.003223264027
-0.002621575532
-0.003313094867
-0.001588561756
-0.003015268244
-0.0007338251775
-0.002340830942
-0.0001814914234
-0.001392588086
-0.0003826115272
-0.0002895917634
0.001135665187
-0.000958932559
0.002681136062
-0.00185431829
0.003601729904
-0.00286331808
0.004029715671
-0.003903860123
0.004082643805
-0.004913203772
0.003842631381
-0.005838735658
0.003362697083
-0.006631489674
0.002676074658
-0.007242649313
0.001807657447
-0.007623018691
0.0007852484341
-0.007725794124
-0.0003504441074
-0.007511777392
-0.001538107416
-0.006959001035
-0.002688769171
-0.006074626714
-0.003685584858
-0.004908995646
-0.004388895097
-0.003567555268
-0.004654535246
-0.002213075152
-0.004369748376
-0.001047392055
-0.003506513997
-0.0002675694251
-0.00217241066
-0.0006501809214
-0.0003145449688
0.001450210154
-0.001044030463
0.003410621541
-0.002025507072
0.004583206562
-0.003141199642
0.00514540824
-0.004306899192
0.005248343409
-0.005459598196
0.004995330446
-0.006546413491
0.004449512443
-0.007516221978
0.003645883188
-0.008314484024
0.002605919526
-0.008881342646
0.001352107093
-0.009153543093
-7.824365104e-05
-0.009069196338
-0.001622454172
-0.008579143265
-0.003178822255
-0.007662028093
-0.00460270006
-0.006345975234
-0.005704947989
-0.004732622555
-0.006267887939
-0.003014304969
-0.006088065997
-0.001465353799
-0.005055465174
-0.0003870884092
-0.003250676043
-0.001037269361
-0.0003281282637
0.001778338439
-0.001092777119
0.004175270378
-0.002127885993
0.00561831553
-0.003314271328
0.006331793581
-0.004568735465
0.006502807589
-0.005831057886
0.006257652911
-0.007051492173
0.005669946771
-0.008180713194
0.00477510422
-0.009162881046
0.003588087371
-0.009931989757
0.002121215823
-0.01041130124
0.0004010678326
-0.01051829902
-0.001515456408
-0.01017256001
-0.003524561289
-0.009313812113
-0.005461447994
-0.007929352346
-0.007089407822
-0.006092456645
-0.008104783679
-0.004003845921
-0.008176676746
-0.002009863258
-0.007049447843
-0.0005514304342
-0.004709108896
-0.001588699875
-0.0003292370448
0.002107575528
-0.001099573775
0.004945607065
-0.002146980505
0.00666572237
-0.003353959658
0.00753877272
-0.004641071785
0.007789919713
-0.005953844213
0.007570425338
-0.007249426938
0.006965529501
-0.008485340822
0.006011018092
-0.009611048586
0.004713795085
-0.01056233786
0.003072505071
-0.01125833907
0.001097069024
-0.01160212012
-0.001171675366
-0.0114860286
-0.003640652841
-0.01080567005
-0.006141806561
-0.009489442313
-0.008405635614
-0.007549171195
-0.01004505487
-0.005152491073
-0.01057335692
-0.002691375328
-0.009510563602
-0.0007726581595
-0.006627826123
-0.002361358115
-0.0003200002013
0.002427575806
-0.001066459364
0.005692066146
-0.002079426928
0.007678690026
-0.003244732269
0.008704078017
-0.004489094986
0.009034282367
-0.005766728115
0.008848058397
-0.007045585099
0.008244386444
-0.008295604017
0.007261036988
-0.009479444633
0.005897635645
-0.0105453019
0.004138362273
-0.01142106071
0.001972827789
-0.01200944174
-0.0005832943685
-0.01218852895
-0.003461565641
-0.01181490437
-0.00651543113
-0.01074857632
-0.009471963654
-0.008906772704
-0.01188685851
-0.006364770708
-0.01311535895
-0.003494956186
-0.01238037813
-0.001061709257
-0.009061073117
-0.003423067416
-0.0003081382162
0.002735714108
-0.001008430761
0.006392358544
-0.001941161204
0.008611420507
-0.002995418356
0.009758335086
-0.004106919029
0.01014578294
-0.005242178833
0.009983318075
-0.006384124296
0.009386331808
-0.007520499182
0.008397411835
-0.008634686061
0.007011822485
-0.009697950221
0.005201626371
-0.01066153944
0.002936416957
-0.01144566654
0.0002008327058
-0.01193629667
-0.002970935557
-0.01196975403
-0.006481973793
-0.01134588572
-0.01009583196
-0.00986854217
-0.01336420207
-0.00745796624
-0.01552593491
-0.004361471483
-0.01547687293
-0.001424395353
-0.01199814932
-0.004847462744
-0.0003102888265
0.00304600301
-0.0009594296969
0.007041499223
-0.001775059152
0.00942704994
-0.002648489512
0.01063176533
-0.003529648341
0.01102694167
-0.00440320141
0.01085687103
-0.005272136328
0.01025526661
-0.006146734981
0.009272010423
-0.00703644741
0.007901534892
-0.007943137858
0.006108316747
-0.008852433168
0.003845712186
-0.009723837255
0.001072236746
-0.01046874597
-0.002226026884
-0.01093933734
-0.006011382457
-0.01090640429
-0.01012876503
-0.01007186098
-0.01419874537
-0.008160186919
-0.01743760895
-0.005167754455
-0.01846930541
-0.001853809769
-0.01531209404
-0.006701272438
-0.0003571582485
0.003403161309
-0.0009789385328
0.007663279327
-0.00165593986
0.01010405122
-0.002282766539
0.01125859186
-0.00283467516
0.01157885021
-0.003324795324
0.01134699115
-0.003783206875
0.01071367808
-0.004246939352
0.009735742829
-0.004753713601
0.008408309158
-0.005338179098
0.006692782145
-0.006025135441
0.004532668413
-0.006819422303
0.001866523505
-0.007686343721
-0.001359105562
-0.008525754723
-0.005171971561
-0.009131688946
-0.009522830934
-0.009155830818
-0.01417460357
-0.008136214353
-0.01845722543
-0.005714144735
-0.02089137507
-0.002318594775
-0.01870764406
-0.009019867181
-0.0005026115492
0.00390577288
-0.001158126209
0.008318793872
-0.001687134836
0.01063305984
-0.001999421646
0.01157087852
-0.002118375919
0.0116978044
-0.002102505181
0.01133112042
-0.002018184451
0.01062935736
-0.00193305528
0.009650613521
-0.001911872885
0.008387126724
-0.002019022325
0.006799931514
-0.002314790104
0.00482843608
-0.002849591781
0.002401325044
-0.003650832528
-0.0005578649277
-0.004694519435
-0.004128284704
-0.005856399964
-0.00836095045
-0.006824532733
-0.01320647085
-0.007027898367
-0.0182538598
-0.005721858251
-0.02219741521
-0.002740834841
-0.02168866757
-0.01176070199
-0.000833171061
0.004738943951
-0.001612032587
0.009097655339
-0.001964274263
0.0109853016
-0.001858898474
0.01146550261
-0.00141056535
0.01124947112
-0.0007478094339
0.01066836453
1.499696354e-05
0.009866550979
0.0007819487742
0.008883661781
0.001460649959
0.007708425446
0.001964553518
0.006296027868
0.002206366419
0.004586623035
0.002098580073
0.002509111169
0.00155576402
-1.504907433e-05
0.0005207203316
-0.003093241253
-0.001005166675
-0.006835063653
-0.002845256877
-0.01136638086
-0.004471497328
-0.01662761953
-0.004817175122
-0.02185173736
-0.002946289027
-0.02355955372
-0.01470699108
-0.001467520817
0.006206464804
-0.002386054418
0.01001618885
-0.002385387149
0.01098463451
-0.001621610644
0.01070172613
-0.0003733626369
0.01000122294
0.001135389354
0.009159612333
0.002740670962
0.008261269365
0.004316760817
0.007307571895
0.005758872758
0.006266313486
0.006966575064
0.005088325522
0.007836295691
0.003716902355
0.008255841597
0.002089565219
0.008100895153
0.0001398972586
0.007244640523
-0.002236986647
0.00556848233
-0.005158905502
0.003060510254
-0.008858408938
7.023866358e-05
-0.013637348
-0.002451658269
-0.01932984056
-0.002603185231
-0.02340802668
-0.01731017637
-0.002366246407
0.008572711329
-0.002967204661
0.01061714686
-0.001930490491
0.009947920472
6.830966257e-05
0.008702926164
0.002517069278
0.007552463423
0.005118114915
0.006558566573
0.007694523595
0.005684860555
0.01012767667
0.004874418699
0.012322427
0.004071563023
0.01418601471
0.003224737644
0.01561680908
0.002286107786
0.01649689684
0.001209477244
0.01667924069
-4.244672232e-05
0.01601254015
-0.00157028623
0.01429339779
-0.003439763186
0.0113236103
-0.005888621411
0.007048279322
-0.009362017222
0.002197090197
-0.01447865145
-0.001029294426
-0.02018164201
-0.01833947076
-0.002149846288
0.01072255789
-7.200543373e-05
0.008539305597
0.00373993167
0.006135983022
0.007714573657
0.004728283941
0.01155280614
0.003714230826
0.01512820851
0.002983164154
0.01838304382
0.002430025243
0.02128378455
0.001973678007
0.02379398477
0.001561362879
0.02586185683
0.001156865676
0.02741430514
0.0007336595846
0.02835078655
0.0002729959336
0.0285647508
-0.0002564109704
0.02787947135
-0.0008850068121
0.02609349021
-0.001653782167
0.02290414871
-0.00269927983
0.01790387489
-0.004361743465
0.01076486166
-0.007339638314
0.002911292868
-0.01232807324
-0.01542817792
0.01072255813
0.01926186388
0.0253978469
0.03012613074
0.03384036146
0.03682352551
0.03925355068
0.04122722863
0.04278859148
0.04394545715
0.04467911673
0.04495211269
0.04469570175
0.04381069492
0.04215691269
0.03945763289
0.03509588946
0.02775625114
0.01542817792
)
;

boundaryField
{
    movingWall
    {
        type            calculated;
        value           uniform 0;
    }
    fixedWalls
    {
        type            calculated;
        value           uniform 0;
    }
    frontAndBack
    {
        type            empty;
    }
}


// ************************************************************************* //
