/*--------------------------------*- C++ -*----------------------------------*\
  =========                 |
  \\      /  F ield         | OpenFOAM: The Open Source CFD Toolbox
   \\    /   O peration     | Website:  https://openfoam.org
    \\  /    A nd           | Version:  13
     \\/     M anipulation  |
\*---------------------------------------------------------------------------*/
FoamFile
{
    format      ascii;
    class       surfaceScalarField;
    location    "14";
    object      phi_0;
}
// * * * * * * * * * * * * * * * * * * * * * * * * * * * * * * * * * * * * * //

dimensions      [0 3 -1 0 0 0 0];

internalField   nonuniform List<scalar> 
760
(
-1.321167555e-05
1.321175213e-05
-7.17494034e-05
5.853759597e-05
-0.0001613434027
8.959442643e-05
-0.0002639486832
0.0001026050081
-0.0003664314891
0.0001024826899
-0.000459233494
9.280207704e-05
-0.000535147053
7.591361352e-05
-0.0005884705325
5.332342481e-05
-0.0006147528329
2.628224825e-05
-0.0006110338803
-3.718912594e-06
-0.0005762790337
-3.475480106e-05
-0.0005121702095
-6.410879547e-05
-0.0004235706432
-8.859954763e-05
-0.0003187781488
-0.0001047924756
-0.0002092283104
-0.0001095498239
-0.000108494988
-0.0001007333101
-3.043007237e-05
-7.806486847e-05
1.370519064e-05
-4.413514932e-05
2.166884734e-05
-7.963516916e-06
2.166893327e-05
-6.834839016e-05
8.155982252e-05
-0.0002444207738
0.0002346105614
-0.0004906835985
0.0003358567098
-0.0007678813295
0.0003798024177
-0.001044459538
0.0003790609567
-0.001295735749
0.0003440783216
-0.001502379379
0.0002825571986
-0.001649149435
0.0002000934312
-0.001724480767
0.0001016136332
-0.001721091616
-7.107870064e-06
-0.00163657715
-0.0001192690555
-0.001475474785
-0.0002252109986
-0.00124996822
-0.000314105986
-0.0009804418449
-0.0003743187199
-0.0006946964849
-0.0003952950288
-0.0004253703299
-0.0003700593494
-0.0002052714788
-0.0002981636935
-6.025345345e-05
-0.000189153255
-7.286946089e-07
-6.748843736e-05
2.0940276e-05
-0.0001221720046
0.0002037322594
-0.0004123910221
0.0005248292348
-0.0008036586782
0.000727124195
-0.001239518006
0.0008156618743
-0.001674497718
0.0008140407835
-0.002072132377
0.0007417129046
-0.002403110538
0.0006135352937
-0.002643869875
0.0004408527648
-0.002776208466
0.000233952306
-0.002788258286
4.942076897e-06
-0.00267512105
-0.0002324062402
-0.002442098311
-0.0004582337466
-0.002105580936
-0.0006506233638
-0.00169417525
-0.0007857243645
-0.001247879093
-0.0008415911029
-0.000814680165
-0.000803258197
-0.0004438782805
-0.0006689654926
-0.0001761739981
-0.0004568574709
-3.229169592e-05
-0.0002113707979
-1.135136207e-05
-0.0001709440372
0.0003746759474
-0.0005688388249
0.0009227239014
-0.001098890516
0.001257176067
-0.001687371902
0.001404143353
-0.00227653207
0.001403200936
-0.002820296456
0.001285477221
-0.0032811066
0.001074345487
-0.003627920259
0.0007876664938
-0.003835666083
0.0004416982537
-0.003885851339
5.512746429e-05
-0.003769333077
-0.0003489244251
-0.003487907924
-0.0007396588781
-0.003057986228
-0.001080545042
-0.002512444863
-0.00133126573
-0.001900882944
-0.001453153054
-0.001286537125
-0.001417604087
-0.0007385455562
-0.001216957082
-0.0003194816124
-0.0008759213522
-7.099161037e-05
-0.0004598607493
-8.234286436e-05
-0.0002155987825
0.0005902746477
-0.0007142096849
0.001421334949
-0.001376926106
0.001919892633
-0.002114030263
0.002141247501
-0.002857146957
0.002146317544
-0.003552424152
0.001980754308
-0.004155509163
0.001677430532
-0.004628424592
0.001260581947
-0.004938441382
0.000751715084
-0.005058772122
0.0001754582551
-0.004971322103
-0.0004363744272
-0.004669944117
-0.001041036851
-0.004165452252
-0.001585036871
-0.003489972401
-0.002006745577
-0.002699840354
-0.002243285109
-0.001874585271
-0.002242859212
-0.001109318797
-0.001982223575
-0.0004991644117
-0.001486075688
-0.0001187777654
-0.0008402473027
-0.0002011205499
-0.0002557756896
0.0008460504856
-0.0008461828635
0.002011742235
-0.001632564898
0.002706274661
-0.00251195864
0.003020641148
-0.003407671655
0.003042030481
-0.00426014398
0.002833226561
-0.005019832278
0.002437118899
-0.005642542676
0.001883292379
-0.006087316731
0.001196489179
-0.006316748628
0.0004048901962
-0.006299933157
-0.0004531898697
-0.006016924767
-0.001324045196
-0.00546602615
-0.00213593543
-0.004671625351
-0.002801146371
-0.003691711279
-0.003223199151
-0.002621534821
-0.003313035658
-0.001588537766
-0.003015220618
-0.0007338143489
-0.002340799055
-0.000181488741
-0.001392572853
-0.0003826093286
-0.0002895850451
0.001135635629
-0.0009589106961
0.002681067814
-0.001854276805
0.003601640649
-0.002863255501
0.00402961971
-0.003903777281
0.004082552185
-0.004913103139
0.003842552337
-0.005838620686
0.003362636478
-0.006631364626
0.002676036298
-0.00724251876
0.001807643316
-0.007622887322
0.0007852588233
-0.007725666656
-0.0003504104518
-0.007511658343
-0.001538053408
-0.006958894617
-0.002688699076
-0.006074536655
-0.003685504358
-0.004908924635
-0.004388811141
-0.003567504606
-0.004654455665
-0.002213044082
-0.004369681123
-0.001047377388
-0.00350646569
-0.0002675655744
-0.002172384594
-0.0006501749782
-0.0003145389612
0.001450174561
-0.001044010575
0.003410539281
-0.002025468954
0.004583098899
-0.003141141635
0.005145292316
-0.004306821913
0.005248232439
-0.005459503838
0.004995234208
-0.006546305167
0.004449437816
-0.00751610349
0.003645834574
-0.008314359394
0.002605899208
-0.008881215936
0.001352115449
-0.009153418527
-7.820777752e-05
-0.009069077857
-0.001622393993
-0.008579034853
-0.003178742017
-0.007661933674
-0.004602605603
-0.00634589819
-0.005704846613
-0.004732565419
-0.006267788401
-0.003014268432
-0.006087978065
-0.001465335808
-0.005055398303
-0.0003870834664
-0.003250636881
-0.001037258494
-0.0003281237841
0.001778298277
-0.001092761573
0.004175177026
-0.002127855541
0.005618192809
-0.003314224209
0.006331660989
-0.004568672043
0.006502680277
-0.005830979983
0.006257542085
-0.007051402445
0.005669860232
-0.008180614794
0.004775046841
-0.009162777194
0.003588061553
-0.009931883542
0.002121221851
-0.01041119552
0.0004011042231
-0.01051819675
-0.001515392766
-0.01017246402
-0.003524474731
-0.009313725569
-0.005461344115
-0.007929278628
-0.007089293566
-0.006092399181
-0.0081046678
-0.004003807126
-0.008176569994
-0.002009843098
-0.007049362311
-0.0005514245745
-0.004709055361
-0.001588683113
-0.0003292347667
0.002107532981
-0.001099564693
0.004945506988
-0.002146961648
0.006665589737
-0.003353929306
0.007538628664
-0.004641030041
0.00778978099
-0.005953792472
0.007570304411
-0.007249367344
0.006965434969
-0.008485275776
0.00601095515
-0.009610980339
0.004713766006
-0.0105622682
0.003072509732
-0.0112582694
0.001097105409
-0.01160205139
-0.001171610759
-0.01148596173
-0.003640564381
-0.01080560642
-0.006141699386
-0.009489384276
-0.008405515703
-0.007549122258
-0.01004492982
-0.005152455177
-0.01057323701
-0.002691355105
-0.009510462439
-0.0007726517755
-0.006627758677
-0.002361334946
-0.0003200005793
0.002427533565
-0.00106645832
0.005691964813
-0.002079422659
0.007678554065
-0.003244723254
0.008703929262
-0.004489081061
0.009034138727
-0.005766710159
0.008847933369
-0.007045564649
0.008244289261
-0.00829558266
0.007260973044
-0.00947942358
0.005897606816
-0.01054528154
0.004138367719
-0.01142104078
0.001972864601
-0.01200942099
-0.0005832304535
-0.01218850603
-0.003461479446
-0.0118148781
-0.006515327279
-0.01074854697
-0.00947184677
-0.008906742666
-0.01188673408
-0.006364744523
-0.01311523513
-0.003494939071
-0.01238026802
-0.001061703054
-0.009060994629
-0.00342303799
-0.0003081414294
0.002735675028
-0.001008438522
0.00639226196
-0.001941173106
0.0086112886
-0.002995433174
0.009758189289
-0.004106936266
0.0101456417
-0.005242198669
0.009983195617
-0.006384147391
0.009386237788
-0.007520526192
0.008397351782
-0.008634717064
0.007011797643
-0.009697984265
0.005201635015
-0.01066157478
0.002936454973
-0.0114457005
0.0002008953816
-0.01193632533
-0.002970854648
-0.01196977391
-0.00648187874
-0.0113458945
-0.01009572617
-0.00986854004
-0.01336408852
-0.007457956825
-0.01552581831
-0.004361461348
-0.0154767636
-0.001424390352
-0.01199806552
-0.004847428447
-0.0003102947461
0.003045969781
-0.0009594460962
0.007041413304
-0.001775087121
0.009426929534
-0.002648528155
0.01063163026
-0.003529696671
0.01102681011
-0.004403258632
0.01085675743
-0.005272201762
0.01025518079
-0.006146808138
0.009271958183
-0.007036527106
0.00790151658
-0.007943221989
0.006108330009
-0.008852518997
0.003845752021
-0.009723920532
0.00107229694
-0.01046882245
-0.002225952733
-0.01093940192
-0.006011299278
-0.0109064525
-0.01012867555
-0.01007189042
-0.01419865053
-0.008160198968
-0.0174375098
-0.005167754927
-0.01846920785
-0.001853807291
-0.01531201305
-0.006701235873
-0.0003571664304
0.003403136167
-0.0009789624342
0.007663209256
-0.001655982043
0.01010394903
-0.002282826444
0.01125847455
-0.00283475112
0.01157873473
-0.003324885196
0.01134689143
-0.003783308058
0.01071360366
-0.004247050214
0.009735700434
-0.004753831199
0.008408297684
-0.005338300198
0.006692799218
-0.00602525673
0.004532708678
-0.006819539929
0.001866580154
-0.007686453428
-0.001359039293
-0.008525851515
-0.005171901277
-0.009131767734
-0.009522759399
-0.009155887512
-0.01417453085
-0.008136247506
-0.01845714978
-0.005714157436
-0.02089129815
-0.002318595918
-0.01870757454
-0.009019831987
-0.0005026212079
0.003905757312
-0.001158155412
0.008318743402
-0.001687187504
0.01063298103
-0.00199949761
0.01157078452
-0.002118472825
0.01169770998
-0.002102619437
0.01133103815
-0.002018310691
0.01062929496
-0.001933191517
0.009650581476
-0.001912013695
0.008387119838
-0.002019163489
0.006799949145
-0.002314928098
0.004828473324
-0.002849723363
0.002401375429
-0.003650954952
-0.00055780772
-0.004694629024
-0.004128227272
-0.005856492826
-0.008360895643
-0.006824604743
-0.01320641908
-0.007027946233
-0.01825380823
-0.005721881539
-0.02219736281
-0.002740840066
-0.02168861583
-0.01176067216
-0.000833180941
0.004738938187
-0.001612063467
0.009097625841
-0.001964331273
0.01098524884
-0.001858982062
0.01146543528
-0.001410672961
0.01124940085
-0.0007479368641
0.0106683021
1.485240087e-05
0.009866505982
0.0007818008625
0.008883633132
0.001460501304
0.007708419573
0.001964408579
0.006296041958
0.002206228983
0.004586652957
0.002098453
0.002509151348
0.001555646632
-1.500153608e-05
0.0005206163747
-0.003093196996
-0.001005255821
-0.006835023562
-0.002845328926
-0.01136634607
-0.004471550079
-0.0166275869
-0.004817203711
-0.02185170947
-0.002946297432
-0.02355952201
-0.01470696984
-0.001467528796
0.006206466932
-0.00238608096
0.01001617787
-0.002385438393
0.01098460637
-0.001621688062
0.01070168498
-0.000373464277
0.01000117699
0.001135268713
0.009159569262
0.002740538399
0.008261236273
0.004316620816
0.007307550934
0.005758732645
0.006266307748
0.006966440442
0.005088334155
0.007836170617
0.003716922858
0.008255728096
0.002089593839
0.008100797271
0.0001399294441
0.007244555697
-0.002236955352
0.005568410805
-0.005158878719
0.003060453272
-0.008858388501
7.020173804e-05
-0.01363733552
-0.002451683381
-0.01932982439
-0.002603194221
-0.02340801113
-0.01731016394
-0.002366249742
0.008572716678
-0.002967219344
0.01061714715
-0.001930523565
0.00994791054
6.825461413e-05
0.008702906804
0.002516992779
0.007552438767
0.005118020222
0.006558541947
0.007694415921
0.005684840559
0.01012756154
0.004874405402
0.0123223109
0.004071558472
0.01418590346
0.003224741671
0.01561670743
0.002286118965
0.01649680821
0.001209493143
0.01667916409
-4.242650732e-05
0.01601247767
-0.001570268865
0.01429334772
-0.003439748779
0.0113235707
-0.00588861153
0.007048247986
-0.009362012495
0.002197070879
-0.01447864742
-0.001029302883
-0.02018163752
-0.01833946684
-0.002149844448
0.01072256114
-7.200597263e-05
0.008539308263
0.003739922847
0.00613598153
0.007714551122
0.004728278473
0.01155276699
0.003714222746
0.01512815359
0.002983155524
0.01838297619
0.002430017955
0.02128370852
0.001973673123
0.02379390585
0.001561361245
0.02586178025
0.001156867264
0.0274142354
0.0007336638494
0.02835072663
0.0002730019092
0.02856470412
-0.0002564038974
0.02787943621
-0.0008850007498
0.02609346524
-0.001653777661
0.02290413105
-0.002699277441
0.01790386155
-0.004361743224
0.01076485299
-0.00733963864
0.002911289108
-0.01232807364
-0.01542817777
0.01072256114
0.01926186942
0.02539785076
0.03012612935
0.03384035196
0.03682350751
0.03925352551
0.04122719864
0.04278855996
0.04394542726
0.04467909118
0.04495209313
0.04469568907
0.04381068835
0.04215691063
0.03945763329
0.03509589005
0.02775625138
0.01542817777
)
;

boundaryField
{
    movingWall
    {
        type            calculated;
        value           uniform 0;
    }
    fixedWalls
    {
        type            calculated;
        value           uniform 0;
    }
    frontAndBack
    {
        type            empty;
    }
}


// ************************************************************************* //
