/*--------------------------------*- C++ -*----------------------------------*\
  =========                 |
  \\      /  F ield         | OpenFOAM: The Open Source CFD Toolbox
   \\    /   O peration     | Website:  https://openfoam.org
    \\  /    A nd           | Version:  13
     \\/     M anipulation  |
\*---------------------------------------------------------------------------*/
FoamFile
{
    format      ascii;
    class       vectorField;
    location    "14";
    object      U_all;
}
// * * * * * * * * * * * * * * * * * * * * * * * * * * * * * * * * * * * * * //


400
(
(1.039310073e-05 -3.665825007e-05 0)
(-0.0006644516986 0.0004119389235 -1.548838319e-23)
(-0.002176140536 0.0009163083837 0)
(-0.004028848315 0.001306333647 0)
(-0.005942732872 0.001527277251 6.73784981e-25)
(-0.007724532298 0.001561849943 4.133101807e-24)
(-0.009239199734 0.001416431377 -6.978543219e-24)
(-0.01038620789 0.001114339773 7.957844488e-24)
(-0.01108584599 0.0006930275788 -2.133612176e-25)
(-0.01127821837 0.0002025265731 -4.05587326e-24)
(-0.01092818846 -0.0002984794499 5.875787542e-24)
(-0.01003686021 -0.0007440952981 -5.992726725e-23)
(-0.008654474551 -0.00107139405 -6.62726619e-23)
(-0.006888307333 -0.001229191838 -7.868695172e-23)
(-0.004906465443 -0.001190089156 4.634239379e-24)
(-0.002931193188 -0.0009613544079 -4.209424392e-24)
(-0.001214350219 -0.0005927702193 -2.052746085e-22)
(-2.887614382e-05 -0.0001729914624 0)
(0.0005111368948 0.0001683083722 1.779803598e-25)
(0.0002209557044 0.0003034927379 -6.118734047e-24)
(-0.0002619874626 0.0008266583741 1.364511363e-25)
(-0.002688840999 0.003367211986 1.558851688e-23)
(-0.00686857387 0.005574206562 1.556232626e-25)
(-0.01188441882 0.006969364639 -8.382727736e-25)
(-0.0170377093 0.007512126288 1.143029237e-24)
(-0.02185185282 0.007255131965 1.273288333e-23)
(-0.02596694743 0.006289981899 1.734083665e-24)
(-0.02910915729 0.004732892637 -7.6995592e-24)
(-0.03106627586 0.002728514744 1.039147381e-23)
(-0.03168653839 0.0004567931054 4.580437429e-24)
(-0.03088568029 -0.001867487598 -6.397753581e-24)
(-0.02867213101 -0.003997064127 2.91388981e-24)
(-0.0251764142 -0.005677256324 3.930051632e-23)
(-0.02066545282 -0.006676117785 -1.986408202e-24)
(-0.01555075988 -0.006827617474 3.823313953e-24)
(-0.01036971991 -0.006079780718 -1.001464162e-22)
(-0.005731308602 -0.004539558385 9.925402866e-23)
(-0.002241918344 -0.002511165067 -4.496356984e-25)
(-0.0001896300315 -0.0005126595398 4.609757975e-25)
(8.227227615e-05 0.0006017560122 0)
(-0.0004159494746 0.002920231203 -2.873803478e-25)
(-0.004618881837 0.008754016227 1.663104187e-23)
(-0.01130124413 0.01316283086 -8.413230954e-24)
(-0.01920815891 0.01569946454 -2.043960271e-25)
(-0.02730711743 0.01643513632 2.007976397e-25)
(-0.03490849411 0.01555853106 1.590730505e-26)
(-0.04147119848 0.01329224269 -1.554014366e-24)
(-0.04657243383 0.009876880202 -4.789081157e-25)
(-0.04987903436 0.005588263903 -1.088103813e-23)
(-0.05114701907 0.0007598135463 0)
(-0.05023113978 -0.004199821738 0)
(-0.04712047597 -0.00882419356 2.709721115e-23)
(-0.04198100109 -0.01260599034 2.854588858e-23)
(-0.03517888696 -0.01505747962 -1.681007009e-24)
(-0.02729740607 -0.0157909451 4.975989278e-23)
(-0.01911602084 -0.01461916971 9.684994588e-23)
(-0.01153689767 -0.01166218396 4.297671097e-23)
(-0.00546000863 -0.007442842866 5.23209951e-25)
(-0.001453398191 -0.002945517964 4.942296887e-26)
(-9.075398419e-05 0.0002139309941 0)
(-0.0004986621823 0.006010318776 -4.175896746e-23)
(-0.006360562517 0.01627189503 -1.653111655e-23)
(-0.01543466504 0.0234162834 8.338359954e-24)
(-0.02611252976 0.02727731874 0)
(-0.03705611493 0.02815681446 0)
(-0.04740187302 0.02644181184 0)
(-0.05646311366 0.02251797132 -5.827905309e-26)
(-0.06369042654 0.01676576009 -1.83180842e-24)
(-0.0686342178 0.009600482943 0)
(-0.07093618383 0.001519022174 1.738556712e-24)
(-0.07035736663 -0.006863501732 2.87075906e-25)
(-0.06681424539 -0.01482068063 -2.87879723e-25)
(-0.06042951541 -0.02153399067 0)
(-0.05159203836 -0.02617463534 4.261167818e-23)
(-0.04099109593 -0.02802796809 -4.808238054e-23)
(-0.02961472626 -0.02666523929 -2.926550188e-23)
(-0.01867798107 -0.02214243846 -4.288370793e-23)
(-0.00946227033 -0.0151858043 7.749012698e-25)
(-0.002971180806 -0.007297489742 9.357444721e-23)
(-0.0002311614276 -0.000877763729 0)
(-0.0005276142962 0.01003311345 4.196220729e-23)
(-0.00793143165 0.02579143528 4.823216093e-25)
(-0.01927323873 0.03620539894 -4.713055905e-25)
(-0.03261945954 0.04160470445 0)
(-0.04636385288 0.04264844957 7.69534366e-25)
(-0.05949958036 0.03998406414 -7.588647138e-25)
(-0.07122447927 0.03418022585 3.608294826e-23)
(-0.08088053585 0.02575267343 1.776305356e-23)
(-0.0878994205 0.01523973818 5.975251915e-24)
(-0.09178814457 0.003284672239 -1.740582166e-24)
(-0.09215620898 -0.009302484779 0)
(-0.08876411351 -0.0215141407 4.560176597e-25)
(-0.0815991905 -0.03216842717 1.084054424e-23)
(-0.07097007303 -0.03999628317 -4.485970221e-23)
(-0.05758943195 -0.04381060722 2.02824334e-24)
(-0.04262351963 -0.04276782725 4.558164728e-23)
(-0.02765464618 -0.03670090227 -4.402119184e-25)
(-0.01450099887 -0.02645171708 0)
(-0.004844019904 -0.01406127802 5.39271174e-23)
(-0.000362460244 -0.002852836069 -2.512251968e-22)
(-0.000523673409 0.01490598657 9.846215644e-23)
(-0.009320387027 0.03715898307 -4.925044713e-25)
(-0.02274468604 0.05138868916 0)
(-0.03860334838 0.05859578502 0)
(-0.05507156701 0.05991878576 -8.674595924e-23)
(-0.07103527604 0.05632426401 -8.421450231e-23)
(-0.08560912392 0.04857412916 -3.99661899e-23)
(-0.09804731943 0.03729654364 -1.463375158e-23)
(-0.1076644675 0.0231102302 -5.133843218e-24)
(-0.1138082452 0.006755360931 -7.965948843e-24)
(-0.1158823194 -0.01079774247 6.36398554e-24)
(-0.1134043646 -0.02827806857 8.366558663e-24)
(-0.106109475 -0.04410284872 -1.868150996e-23)
(-0.094093453 -0.05645530096 2.62688406e-24)
(-0.07796908471 -0.06348444287 0)
(-0.05900947416 -0.06366694673 -1.759914484e-23)
(-0.03919803099 -0.05632815157 3.915851878e-26)
(-0.02106716723 -0.0422235303 0)
(-0.007293039953 -0.02392375234 -1.472513169e-22)
(-0.0005189921647 -0.005920920391 5.944280008e-22)
(-0.0004965352194 0.0205194601 -9.778986637e-23)
(-0.0104723018 0.05014996031 2.822094371e-22)
(-0.0256914764 0.0687185606 1.520687592e-22)
(-0.04379112669 0.07804832222 3.598841763e-24)
(-0.06278635433 0.07986479251 -7.274035763e-23)
(-0.08150112244 0.07550504516 8.960084442e-23)
(-0.09900680195 0.06592584662 -3.554726074e-24)
(-0.1145010804 0.05183028561 -1.702929355e-24)
(-0.127198199 0.03385231643 2.483232819e-24)
(-0.1362809549 0.0127488127 7.188125175e-24)
(-0.1409117299 -0.01042947001 -6.275360133e-24)
(-0.1402915262 -0.03420416242 -9.280893796e-24)
(-0.1337854706 -0.05659549671 -3.236213058e-23)
(-0.1211168343 -0.07515359752 -3.318235214e-23)
(-0.1026142429 -0.08715059518 4.940344342e-25)
(-0.07949573408 -0.09002624935 0)
(-0.05408684546 -0.08214305172 0)
(-0.02977273158 -0.0637678744 -2.822506295e-24)
(-0.01062694577 -0.03788134502 2.885102274e-24)
(-0.0007316593066 -0.01048024763 1.021544726e-22)
(-0.0004468387662 0.02671514114 0)
(-0.01129875133 0.06443417201 1.991452837e-22)
(-0.02789124601 0.08780173025 8.914381933e-23)
(-0.04778771601 0.09958629565 0)
(-0.06890931069 0.102189474 1.559799847e-22)
(-0.09006876538 0.09736348746 0)
(-0.1103424393 0.08625846262 -1.415836062e-22)
(-0.1289181993 0.06960907574 6.449082752e-24)
(-0.1449521877 0.04798617628 0)
(-0.1574934308 0.02205846128 0)
(-0.1654719842 -0.007162381093 -1.350390504e-24)
(-0.1677428318 -0.03809885006 -9.074185537e-25)
(-0.1632154009 -0.0684546421 1.459992008e-22)
(-0.1510794627 -0.0951316884 -4.670252774e-23)
(-0.131137612 -0.1143501579 -2.468573118e-24)
(-0.1042634007 -0.1221060372 1.448360584e-24)
(-0.07288609699 -0.1151502099 -1.471207429e-24)
(-0.04123121186 -0.0925348789 0)
(-0.01520681936 -0.057241652 3.152518027e-24)
(-0.001040080111 -0.01710507825 -9.991887773e-22)
(-0.0003752099062 0.0332802316 0)
(-0.01171270648 0.0795583363 -1.124405191e-22)
(-0.02911026853 0.1080704629 -6.162806811e-22)
(-0.05014937211 0.122607132 -3.735979668e-22)
(-0.07272275019 0.1263162718 0)
(-0.0956826849 0.1214076234 4.091199766e-22)
(-0.118164424 0.1092296332 1.249832007e-22)
(-0.1394086547 0.0905138732 -5.527435179e-24)
(-0.1585868548 0.06569440948 5.500077518e-24)
(-0.1746949247 0.03524077306 0)
(-0.1865011382 -1.959113326e-05 2.881945453e-23)
(-0.1925703352 -0.03858883277 4.629989164e-24)
(-0.1913535068 -0.07801968937 -1.057953651e-22)
(-0.1813913535 -0.1146849049 7.829447835e-23)
(-0.1617061678 -0.1437119697 -2.377692721e-22)
(-0.1324160774 -0.1593058091 0)
(-0.09556440515 -0.1558150339 0)
(-0.05588599177 -0.1299112059 0)
(-0.02142550096 -0.08357801938 0)
(-0.001495384557 -0.0265867887 5.500907707e-22)
(-0.0002901227972 0.03996164593 0)
(-0.01167490342 0.09496626683 -3.477426353e-22)
(-0.02918855089 0.1287864257 8.891990674e-22)
(-0.05050549746 0.1462568302 3.598524077e-22)
(-0.07354629902 0.1513273023 0)
(-0.09725031215 0.1467113569 -3.836171789e-22)
(-0.1208673051 0.1339777295 -3.151137031e-23)
(-0.1437645845 0.1138453888 3.308689931e-22)
(-0.1652285623 0.08656512068 1.755842934e-22)
(-0.1843301477 0.05231596165 -4.028128813e-23)
(-0.1998355106 0.01159355641 1.649514271e-23)
(-0.2101672015 -0.03440110297 -8.180240357e-24)
(-0.2134309142 -0.08333579824 3.341411671e-22)
(-0.2075404403 -0.1313538281 0)
(-0.1905587435 -0.1726928642 2.378841341e-22)
(-0.1613970005 -0.1996563447 5.649325429e-24)
(-0.1209759059 -0.2034430091 -5.733573668e-24)
(-0.07372351228 -0.1767434502 1.509159908e-22)
(-0.02966132732 -0.118562214 -5.319818745e-24)
(-0.002173883588 -0.03995577907 0)
(-0.0002163786097 0.04651278384 0)
(-0.0112537853 0.1100649769 0)
(-0.02815096457 0.1490908944 -5.000075321e-22)
(-0.04872110368 0.1694511022 -1.872313765e-23)
(-0.07095509219 0.1759519719 2.026901649e-23)
(-0.09392828557 0.1718674604 -2.00296965e-23)
(-0.1170622546 0.1590322661 -2.301429451e-23)
(-0.1399290875 0.1381803599 -3.007456126e-22)
(-0.1620430292 0.10937983 6.676871557e-23)
(-0.1827092007 0.07247673942 4.477202083e-23)
(-0.2009004082 0.02752351577 -4.540148882e-23)
(-0.2151441226 -0.02478074031 0)
(-0.2234671525 -0.08256622506 -7.711853321e-23)
(-0.2233610263 -0.1422182783 0)
(-0.2119493957 -0.1976076643 -3.708817786e-22)
(-0.1866130196 -0.2394663365 5.191310185e-22)
(-0.1463166097 -0.2554754235 0)
(-0.09384533227 -0.2325966115 -1.455869519e-22)
(-0.04016720226 -0.1635994676 1.89819961e-22)
(-0.003195080058 -0.0584817772 -3.372363436e-22)
(-0.0002078385974 0.05278106619 0)
(-0.01070031771 0.1243447899 9.14725323e-22)
(-0.02633431015 0.1681071395 -2.430678862e-23)
(-0.04507610513 0.190951006 9.155616047e-22)
(-0.06502117622 0.198624247 -2.500588405e-23)
(-0.08545040471 0.1950337513 2.82346013e-23)
(-0.106025473 0.1823463161 -2.797686598e-23)
(-0.1266015243 0.1613738926 -1.651116488e-23)
(-0.1470254658 0.1320557027 -5.229488866e-22)
(-0.1669875572 0.09393238504 -8.85365949e-24)
(-0.1858828255 0.04658078478 9.603758446e-24)
(-0.2026326294 -0.009946260995 3.296677036e-22)
(-0.2155573853 -0.0746113907 -5.787596645e-22)
(-0.2221330194 -0.1445685466 0)
(-0.2188712871 -0.2141529166 8.828392436e-22)
(-0.2016430194 -0.2734347236 -4.890472371e-22)
(-0.1668369728 -0.3069999547 -1.55622802e-23)
(-0.1139732312 -0.2948439634 0)
(-0.05284606091 -0.2191805118 -1.851497051e-22)
(-0.004743450724 -0.08361689739 3.322102203e-22)
(-0.0003717002193 0.05885055341 1.545106881e-23)
(-0.01054626092 0.1375560786 -8.730212261e-22)
(-0.024517662 0.1850884842 -1.153093247e-21)
(-0.04042024654 0.2094849383 -8.593600406e-22)
(-0.05650297194 0.2176053488 0)
(-0.07238175072 0.2140792756 3.497449232e-23)
(-0.08805947974 0.2014729665 -7.260139208e-23)
(-0.1037557151 0.1807508764 5.839254818e-23)
(-0.119727282 0.1518091322 3.005091674e-22)
(-0.1361459296 0.1139716405 -1.122722482e-23)
(-0.1529760755 0.06639518805 0)
(-0.169820595 0.008454584384 -3.585832846e-22)
(-0.1856272049 -0.05981107844 7.484105045e-22)
(-0.1983583142 -0.1368745976 8.799836696e-22)
(-0.2046081699 -0.2184847284 -5.266799541e-22)
(-0.1992738925 -0.2954924742 5.138713947e-22)
(-0.176153925 -0.3509004682 1.064796838e-23)
(-0.1301124995 -0.3579178792 -1.081896128e-23)
(-0.06687501509 -0.2839251942 -8.54617989e-23)
(-0.007079007128 -0.1168230396 0)
(-0.0009177781993 0.06526182918 -1.905121193e-23)
(-0.01174566722 0.1499157025 -1.323054509e-21)
(-0.02403944586 0.1995493462 1.090505862e-21)
(-0.03624422859 0.223841626 6.714625869e-22)
(-0.04687585123 0.2310968363 5.995473021e-22)
(-0.05613498054 0.2267601314 6.620977089e-22)
(-0.06452796696 0.2138240222 -4.440533386e-23)
(-0.07273326914 0.1934452652 -3.448546962e-22)
(-0.08146038905 0.1655472009 2.144261958e-22)
(-0.09138395711 0.1293495179 0)
(-0.1030762899 0.08371799052 0)
(-0.1168788143 0.02746431837 2.647823598e-22)
(-0.1326541181 -0.04030928884 8.219988971e-23)
(-0.1493793732 -0.1196780897 -2.805420519e-22)
(-0.1645190563 -0.2085801636 -5.3949948e-23)
(-0.1730924279 -0.3003308339 1.306636956e-22)
(-0.1672346903 -0.3789379605 -3.383370419e-22)
(-0.1366298317 -0.4132367634 -1.734806712e-23)
(-0.080203909 -0.3534698353 8.53450011e-23)
(-0.01050634858 -0.159237547 -6.052793386e-22)
(-0.002268714111 0.07339328098 0)
(-0.0158861108 0.1623728562 2.139974854e-21)
(-0.02683452795 0.2113753484 0)
(-0.03451202262 0.2329147563 -1.348193769e-21)
(-0.03797764968 0.2373049402 6.208850764e-23)
(-0.03846059761 0.2308519628 -6.171581902e-22)
(-0.03720600876 0.2168947171 -4.741286491e-22)
(-0.03545725079 0.1967365875 8.273066629e-22)
(-0.03438331409 0.1703072139 -1.87869486e-22)
(-0.03510254673 0.1368128738 0)
(-0.03871427658 0.09497992735 0)
(-0.04622971185 0.04328689604 2.423587597e-23)
(-0.05845787721 -0.01986375232 -5.992119613e-22)
(-0.0756526253 -0.09593023693 -4.298978945e-22)
(-0.09689897712 -0.1852881277 4.631331718e-22)
(-0.1187144456 -0.2850945378 -6.469876159e-22)
(-0.1335437687 -0.3835644591 9.03598797e-23)
(-0.1266956057 -0.4501463997 3.084685156e-23)
(-0.08904690526 -0.4195684952 5.666373144e-22)
(-0.01527231256 -0.2110138948 6.041387196e-22)
(-0.005187969881 0.085932331 0)
(-0.02534018971 0.1764482167 1.467594517e-22)
(-0.03502964147 0.2202994681 -4.906893822e-23)
(-0.03671373493 0.2351242587 7.624796567e-22)
(-0.030607704 0.2339745409 -6.987424369e-22)
(-0.01968093266 0.2238426019 4.733689566e-23)
(-0.00618658907 0.2081207653 -1.017902993e-22)
(0.007958136477 0.1879993111 -3.379247414e-22)
(0.02116252536 0.163375423 2.0574406e-22)
(0.03200000482 0.1334071718 0)
(0.03898061848 0.09680049998 0)
(0.04060338321 0.05194830679 -2.896375909e-22)
(0.0352585099 -0.003030632206 0)
(0.02150271598 -0.07036230364 -5.506749229e-22)
(-0.001687794803 -0.1523730238 -1.457888035e-23)
(-0.03346054276 -0.2504167878 2.556518771e-23)
(-0.06937687372 -0.3597622127 2.19493393e-22)
(-0.09246454561 -0.457375457 4.813132417e-24)
(-0.08725648687 -0.4696256615 -5.795994181e-22)
(-0.02103919546 -0.2697750285 0)
(-0.01112006336 0.1085930987 0)
(-0.0425582892 0.194629728 -8.832160229e-22)
(-0.04812669375 0.2256425484 -5.404607216e-22)
(-0.03948111209 0.2279740617 4.538446322e-22)
(-0.01917364063 0.2179763992 -1.717684049e-24)
(0.007175851709 0.2025905924 -4.55305656e-23)
(0.0361279582 0.1845902472 5.683010588e-22)
(0.0652399774 0.1646092089 -2.760122194e-23)
(0.0926679782 0.1422940959 -2.064287988e-22)
(0.1168007931 0.116685454 3.135385693e-23)
(0.1359909326 0.08653054923 -3.419520447e-23)
(0.1484569007 0.05033545741 -3.685435593e-23)
(0.1520734174 0.006333875295 3.202047013e-22)
(0.1445419148 -0.04779310563 6.113805799e-22)
(0.1231751916 -0.1151612003 -5.097723422e-22)
(0.08605458913 -0.2003063157 -1.617306595e-22)
(0.03174470726 -0.3066931507 1.528259179e-22)
(-0.02379731605 -0.423895684 7.29288789e-23)
(-0.06499527051 -0.4870613098 1.91284008e-21)
(-0.0251095325 -0.3290763105 2.954481839e-21)
(-0.02004427071 0.146095932 -4.386213473e-23)
(-0.0641959668 0.2112809775 4.413360804e-23)
(-0.05080463721 0.2176525298 9.992936067e-22)
(-0.01953245644 0.2013377404 -8.050589673e-24)
(0.02385801588 0.1807525767 0)
(0.0711666484 0.1605433167 4.356674634e-23)
(0.1186296357 0.1415303051 -2.269365631e-22)
(0.1639942013 0.1232426249 -9.008802234e-23)
(0.2057262652 0.1047895242 3.672474915e-23)
(0.2424758453 0.08510048386 -1.697930387e-23)
(0.2727640506 0.0630330156 3.423566196e-23)
(0.2948462925 0.03736295944 -6.583223917e-23)
(0.3063423527 0.006647554903 -9.290872283e-23)
(0.3046746991 -0.03076941317 1.516302482e-22)
(0.2861502237 -0.07777302585 0)
(0.2468629667 -0.1398679361 1.507208726e-22)
(0.1809351864 -0.2266020271 2.559026477e-22)
(0.09592713434 -0.3443545927 0)
(-0.006757511989 -0.4551840187 -3.674771697e-21)
(-0.01923389727 -0.3777195417 -2.892120638e-21)
(-0.02591234071 0.2277072758 -9.511991383e-22)
(-0.03997187444 0.2238384673 -1.388262749e-22)
(0.03654863351 0.1810436798 -2.333429889e-22)
(0.1089861835 0.1450594823 -1.192288811e-22)
(0.1815873184 0.1171775295 -4.293928669e-23)
(0.2488052576 0.09620806464 9.771910063e-23)
(0.309767318 0.07996467301 -1.406232878e-22)
(0.3643094501 0.06652746135 1.294516859e-22)
(0.4122899892 0.05447673776 -8.600964061e-23)
(0.4532895181 0.04271972247 1.131442791e-25)
(0.4864729025 0.03035550678 1.525244661e-23)
(0.510466756 0.01657623154 7.985758931e-23)
(0.5234300164 0.0005867134817 -1.809360578e-22)
(0.5230049088 -0.0185848431 -1.61639736e-22)
(0.5051037691 -0.04282526726 -4.263132961e-23)
(0.4657810249 -0.07630746481 0)
(0.3952040782 -0.1286011958 -1.844084364e-22)
(0.2915576793 -0.2208445151 8.146178639e-22)
(0.1197156164 -0.3524996287 1.631206028e-21)
(0.02669791273 -0.3775453303 2.172450632e-21)
(0.2142969122 0.1347520557 9.862548418e-22)
(0.2776543776 0.09871444163 0)
(0.4316851636 0.05810855691 -2.593245764e-22)
(0.5304856891 0.03846115675 -1.741136281e-22)
(0.6016768831 0.0262282483 0)
(0.6570625363 0.01831169143 -6.002913728e-23)
(0.7014284847 0.0131295934 6.367007952e-23)
(0.7374847958 0.009538576646 -1.795965038e-23)
(0.7668034234 0.006804927889 2.879324227e-23)
(0.7900775011 0.004469194753 2.309898649e-23)
(0.8073354796 0.002228943312 0)
(0.8181646666 -0.0001404829473 -2.868636515e-23)
(0.8215805483 -0.002713681623 0)
(0.8161991498 -0.005705026557 2.736441259e-23)
(0.7991161423 -0.009606881933 1.42359097e-23)
(0.7679968688 -0.01500132388 -5.796247139e-23)
(0.7106597399 -0.02502717539 -2.534220508e-22)
(0.6235210566 -0.04204516407 -6.916077615e-22)
(0.4230088045 -0.09183209104 0)
(0.2705667459 -0.1524032761 -2.119283433e-21)
)


// ************************************************************************* //
