/*--------------------------------*- C++ -*----------------------------------*\
  =========                 |
  \\      /  F ield         | OpenFOAM: The Open Source CFD Toolbox
   \\    /   O peration     | Website:  https://openfoam.org
    \\  /    A nd           | Version:  13
     \\/     M anipulation  |
\*---------------------------------------------------------------------------*/
FoamFile
{
    format      ascii;
    class       vectorField;
    location    "14";
    object      U_all;
}
// * * * * * * * * * * * * * * * * * * * * * * * * * * * * * * * * * * * * * //


400
(
(0.0001234381957 -0.0001257578756 0)
(-0.000206834894 6.965713203e-05 0)
(-0.001432208942 0.0002724098868 0)
(-0.003358918487 0.0004024588237 0)
(-0.005694087013 0.0004686716649 0)
(-0.0081795436 0.0004877817277 0)
(-0.01060373032 0.00046903251 0)
(-0.01277731923 0.000413837073 0)
(-0.01451483948 0.0003193260804 0)
(-0.01563217529 0.0001834128722 0)
(-0.01596235792 9.968746013e-06 0)
(-0.01538780044 -0.0001871823162 0)
(-0.0138818321 -0.0003823624496 0)
(-0.01154767821 -0.0005402813313 0)
(-0.008639582455 -0.0006227892146 0)
(-0.005550368919 -0.0005996067935 0)
(-0.002756060467 -0.000459931649 0)
(-0.0007167948777 -0.0002213273345 0)
(0.0002710473969 5.629658938e-05 0)
(0.0002291402407 0.0002242420814 0)
(-7.820816762e-05 0.0002032865718 0)
(-0.001795163423 0.001706836665 0)
(-0.00546582888 0.003224032973 0)
(-0.01060194804 0.0042545188 0)
(-0.01658096685 0.004775019505 0)
(-0.02283588658 0.004852865221 0)
(-0.02886522725 0.00454213048 0)
(-0.03420328085 0.003864372602 0)
(-0.03839982051 0.002824973611 0)
(-0.0410268302 0.001443724531 0)
(-0.04171787712 -0.0002129519783 0)
(-0.04023544771 -0.002008250314 0)
(-0.03655262697 -0.003728504546 0)
(-0.03092623747 -0.005102657251 0)
(-0.02393235725 -0.005851461732 0)
(-0.01643541189 -0.005762105642 0)
(-0.009470202769 -0.004772343448 0)
(-0.004034855835 -0.003043735887 0)
(-0.0008106124015 -0.001027857669 0)
(0.0001254221748 0.0003160475124 0)
(-0.0003270083871 0.001541119098 0)
(-0.003711117838 0.005498084478 0)
(-0.009821872287 0.008981265674 0)
(-0.01783689798 0.01130754779 0)
(-0.0268774441 0.01244287612 0)
(-0.03618160235 0.01250338813 0)
(-0.04506167494 0.01158917835 0)
(-0.05286794332 0.009749910807 0)
(-0.05897399011 0.007017621091 0)
(-0.06279333906 0.003468626362 0)
(-0.06383187645 -0.0007117308944 0)
(-0.06177113954 -0.005182758595 0)
(-0.05656764788 -0.009439478497 0)
(-0.04854498374 -0.01285665427 0)
(-0.03844675096 -0.01479586199 0)
(-0.02741307508 -0.01476917414 0)
(-0.01684694907 -0.01262896804 0)
(-0.008159095383 -0.00873291788 0)
(-0.002432236352 -0.004046493184 0)
(-4.806582871e-05 -0.0003709946927 0)
(-0.0005482900549 0.003886115391 0)
(-0.005522506607 0.01140208999 0)
(-0.01395609832 0.01738046056 0)
(-0.0246349249 0.02123806821 0)
(-0.03642336955 0.02302740305 0)
(-0.04841207997 0.02294606361 0)
(-0.05979526133 0.02115008813 0)
(-0.06980877566 0.01772202438 0)
(-0.0777098539 0.01272787337 0)
(-0.0827940466 0.006314215592 0)
(-0.0844502854 -0.001191641644 0)
(-0.08225064738 -0.009209083242 0)
(-0.0760640627 -0.01688641478 0)
(-0.0661753493 -0.02316366096 0)
(-0.05337849771 -0.02693621519 0)
(-0.03899745737 -0.0273204552 0)
(-0.02477805144 -0.0239817472 0)
(-0.01261171955 -0.01743246029 0)
(-0.00413066312 -0.009182267192 0)
(-0.0001983482194 -0.001899712648 0)
(-0.0007390879525 0.007140091497 0)
(-0.007159919819 0.01925077163 0)
(-0.01774363827 0.02819496234 0)
(-0.03088834936 0.03375312678 0)
(-0.04521156021 0.03619615455 0)
(-0.05968789142 0.03586273113 0)
(-0.07344156545 0.03298466629 0)
(-0.08564534428 0.02767767911 0)
(-0.09548117247 0.02003250794 0)
(-0.1021450274 0.01025201591 0)
(-0.1048936737 -0.001208781024 0)
(-0.1031336068 -0.01353511941 0)
(-0.09654949953 -0.02551074653 0)
(-0.08526278142 -0.03557878542 0)
(-0.06999394628 -0.04204544221 0)
(-0.05217274292 -0.04345113087 0)
(-0.03390740476 -0.03907774656 0)
(-0.01771595338 -0.02945695748 0)
(-0.006010277676 -0.01663882668 0)
(-0.0003396525676 -0.004289462064 0)
(-0.000902685305 0.01120070329 0)
(-0.008615689283 0.02886042655 0)
(-0.02114372593 0.04122143522 0)
(-0.0365395874 0.04864979586 0)
(-0.05320145198 0.05177043491 0)
(-0.07002130563 0.05113640115 0)
(-0.08609543169 0.04708257619 0)
(-0.100577325 0.03975418721 0)
(-0.1126084792 0.02924106988 0)
(-0.1212993015 0.01576010415 0)
(-0.125756175 -0.0001580209818 0)
(-0.12516071 -0.01751229407 0)
(-0.1189091079 -0.0347406723 0)
(-0.1068164804 -0.04974415334 0)
(-0.08937203349 -0.06009470826 0)
(-0.06798771658 -0.06349888446 0)
(-0.04511871152 -0.05852956649 0)
(-0.02406926948 -0.04547163525 0)
(-0.008350177698 -0.02687423265 0)
(-0.0005101015116 -0.007666784923 0)
(-0.001038856658 0.01597175784 0)
(-0.009878675892 0.04003328782 0)
(-0.02410687585 0.05623371026 0)
(-0.04149172346 0.06571254206 0)
(-0.06024874363 0.06957825106 0)
(-0.07922495527 0.06867604307 0)
(-0.09753113612 0.06347519278 0)
(-0.1143463107 0.05414381452 0)
(-0.12881171 0.04073229844 0)
(-0.1399782222 0.02340526108 0)
(-0.1468024905 0.002681971962 0)
(-0.1482035925 -0.02034255624 0)
(-0.1432005266 -0.04382754486 0)
(-0.1311534411 -0.06512618589 0)
(-0.1121180198 -0.08093719156 0)
(-0.08727423294 -0.08781251905 0)
(-0.05929533879 -0.08313440209 0)
(-0.03236840621 -0.06646396957 0)
(-0.01150525957 -0.04067988057 0)
(-0.0007557061243 -0.01233005383 0)
(-0.001144469154 0.02135034725 0)
(-0.01092363346 0.05253922166 0)
(-0.02655362296 0.07295083553 0)
(-0.04558406342 0.0846539558 0)
(-0.06608428434 0.08936330414 0)
(-0.08689489136 0.08829637621 0)
(-0.1071850684 0.08209255249 0)
(-0.126209448 0.07093750406 0)
(-0.1431625072 0.05479842652 0)
(-0.1570867642 0.03370684002 0)
(-0.1668280921 0.008056208003 0)
(-0.1710539043 -0.02110070311 0)
(-0.1683648594 -0.05177434665 0)
(-0.1575426574 -0.08084058075 0)
(-0.1379796102 -0.1040490864 0)
(-0.1103001358 -0.1164699456 0)
(-0.07707749366 -0.1136601062 0)
(-0.04329533448 -0.09366208956 0)
(-0.01588148674 -0.05920108471 0)
(-0.001133252379 -0.01877661582 0)
(-0.001216748096 0.02721915197 0)
(-0.01172330686 0.06610250288 0)
(-0.02839260162 0.091012954 0)
(-0.04861523191 0.1050691023 0)
(-0.07034286196 0.1107109586 0)
(-0.09244510002 0.1096131956 0)
(-0.1141935637 0.1026291423 0)
(-0.1349742498 0.08996532768 0)
(-0.154104439 0.07146862808 0)
(-0.1707013811 0.04695745469 0)
(-0.1835913109 0.01657319641 0)
(-0.1912729009 -0.01884464111 0)
(-0.1919715568 -0.05735806214 0)
(-0.1838416156 -0.09555000906 0)
(-0.1654064334 -0.1282866609 0)
(-0.1363297931 -0.1489309181 0)
(-0.09853317001 -0.1505033368 0)
(-0.05737047112 -0.1283339362 0)
(-0.02192495821 -0.08390697988 0)
(-0.001718219346 -0.027729319 0)
(-0.00125914233 0.03345125348 0)
(-0.01227684127 0.08040501836 0)
(-0.0295687161 0.1099699513 0)
(-0.05040733619 0.126400706 0)
(-0.07264254612 0.1329851958 0)
(-0.09520421192 0.1319497938 0)
(-0.1175098298 0.1244185496 0)
(-0.1391361051 0.1106390036 0)
(-0.1596054632 0.09032106159 0)
(-0.1782223401 0.06301068021 0)
(-0.193937691 0.02848333622 0)
(-0.2052474412 -0.01281750763 0)
(-0.2101590258 -0.05926802322 0)
(-0.2062813167 -0.1074748274 0)
(-0.1911717722 -0.1517053908 0)
(-0.1631394487 -0.1836459435 0)
(-0.1227059839 -0.193184919 0)
(-0.07469819677 -0.1713938316 0)
(-0.03008554859 -0.1164701211 0)
(-0.002615741644 -0.040166042 0)
(-0.001290598659 0.03993550481 0)
(-0.01265516197 0.09511775023 0)
(-0.03013881302 0.1292928885 0)
(-0.05090590245 0.1479231646 0)
(-0.07270905241 0.1552858935 0)
(-0.09457217165 0.1542691155 0)
(-0.1161053552 0.1463396016 0)
(-0.1371368085 0.1318278161 0)
(-0.1574804185 0.1103218344 0)
(-0.1767545042 0.08107634304 0)
(-0.1942144652 0.04342893689 0)
(-0.2085917399 -0.002732485153 0)
(-0.2179504215 -0.05638337059 0)
(-0.2196068163 -0.1145866027 0)
(-0.2102640684 -0.1715554643 0)
(-0.1866469931 -0.2177443918 0)
(-0.1470947474 -0.2397379504 0)
(-0.09455307305 -0.222755296 0)
(-0.04070556791 -0.1584712984 0)
(-0.003973230698 -0.05733789884 0)
(-0.001360026162 0.04663409748 0)
(-0.01306671279 0.1099721097 0)
(-0.03037151735 0.1484153092 0)
(-0.05030274517 0.1687514714 0)
(-0.07052341621 0.1764368483 0)
(-0.09020847622 0.1751508425 0)
(-0.1092232438 0.1667849258 0)
(-0.1277103901 0.1518117888 0)
(-0.1458533385 0.1297464342 0)
(-0.1636991836 0.09958569256 0)
(-0.1809858613 0.06022399137 0)
(-0.1969435168 0.01090549486 0)
(-0.2100476587 -0.0481826429 0)
(-0.217748242 -0.115041447 0)
(-0.2162861221 -0.1845966579 0)
(-0.2009176349 -0.2470192511 0)
(-0.1672621345 -0.2861911599 0)
(-0.1148375691 -0.2804611555 0)
(-0.05376814435 -0.2108102131 0)
(-0.005991785932 -0.08073934086 0)
(-0.001570215762 0.05369022069 0)
(-0.01395033218 0.1248797029 0)
(-0.03086317925 0.1668003792 0)
(-0.04915221909 0.1878678702 0)
(-0.06644154146 0.1950027433 0)
(-0.08217910476 0.192821725 0)
(-0.0965876824 0.1837132599 0)
(-0.1101949762 0.16834923 0)
(-0.1236123714 0.1462395171 0)
(-0.1373897694 0.1162034715 0)
(-0.1518695372 0.07676633973 0)
(-0.1669924469 0.02655216231 0)
(-0.1820021677 -0.03520386843 0)
(-0.1950150382 -0.1078354383 0)
(-0.2024799511 -0.1878240888 0)
(-0.1987872155 -0.2664486278 0)
(-0.1768749551 -0.326501279 0)
(-0.1315952103 -0.3398357366 0)
(-0.06844674323 -0.272728246 0)
(-0.008924062554 -0.1119504642 0)
(-0.002119952234 0.06161163812 0)
(-0.0161047623 0.1400991998 0)
(-0.03264504305 0.1840056189 0)
(-0.04841132028 0.2041318097 0)
(-0.06117364504 0.2093063738 0)
(-0.07090911704 0.2052187257 0)
(-0.07837070165 0.1947737569 0)
(-0.08455652173 0.1788587031 0)
(-0.09053722554 0.1570326903 0)
(-0.09737511638 0.1280372472 0)
(-0.1060405943 0.09016739748 0)
(-0.1172738445 0.04157332402 0)
(-0.1313214696 -0.01938183492 0)
(-0.1474553999 -0.09350850604 0)
(-0.1631697018 -0.1795096823 0)
(-0.1730966738 -0.2713357622 0)
(-0.1683799027 -0.3532738072 0)
(-0.1388713308 -0.3931409695 0)
(-0.08246091919 -0.3405288839 0)
(-0.01299945509 -0.1521986391 0)
(-0.003361932883 0.07155234652 0)
(-0.02084084782 0.1564168087 0)
(-0.03718123219 0.1996625006 0)
(-0.04920353546 0.216184183 0)
(-0.05534155587 0.2173664517 0)
(-0.05659410312 0.2100113336 0)
(-0.05451092145 0.1974299731 0)
(-0.05065813753 0.1806462811 0)
(-0.0465641692 0.1592668023 0)
(-0.04374286983 0.132028994 0)
(-0.04370428808 0.09715801145 0)
(-0.04791395297 0.05256780243 0)
(-0.05763698818 -0.003961962171 0)
(-0.07355531651 -0.07449483828 0)
(-0.09494227662 -0.160137799 0)
(-0.1180822854 -0.2587618617 0)
(-0.1341458563 -0.3592668351 0)
(-0.1290683766 -0.430196035 0)
(-0.09135614473 -0.4064880653 0)
(-0.01810579148 -0.2015293231 0)
(-0.005787983293 0.08578919439 0)
(-0.02997185149 0.1752159915 0)
(-0.04582699986 0.2130871147 0)
(-0.05162085341 0.2219647727 0)
(-0.04776903753 0.2165219759 0)
(-0.03715700069 0.2043884294 0)
(-0.02246280626 0.1889151891 0)
(-0.005880801317 0.1710292739 0)
(0.01066621195 0.1502799355 0)
(0.02535204531 0.1254257182 0)
(0.0363152613 0.09474660618 0)
(0.0415793701 0.05617313241 0)
(0.03907928753 0.007312717957 0)
(0.02683815416 -0.05458330684 0)
(0.003525442611 -0.1325119843 0)
(-0.03000170061 -0.2285828913 0)
(-0.06742134382 -0.3390626504 0)
(-0.09352742616 -0.439858509 0)
(-0.08790669806 -0.4587623304 0)
(-0.0230915943 -0.2581145426 0)
(-0.009932330287 0.10925526 0)
(-0.04490476553 0.1981549747 0)
(-0.05702960637 0.2218159115 0)
(-0.05015989473 0.2172614832 0)
(-0.02999950305 0.2023789499 0)
(-0.002476144814 0.1844277328 0)
(0.02852469428 0.1659605028 0)
(0.06037365965 0.1473577675 0)
(0.09102723222 0.127901665 0)
(0.1186346182 0.1063292464 0)
(0.1412692206 0.0810612973 0)
(0.1567674704 0.05024983752 0)
(0.162636462 0.01171503229 0)
(0.1560461124 -0.03727845932 0)
(0.1339887561 -0.1004960076 0)
(0.09412943795 -0.1831933066 0)
(0.0379113672 -0.290065354 0)
(-0.02271092422 -0.4113351447 0)
(-0.0619903216 -0.4819265761 0)
(-0.0250920782 -0.318014785 0)
(-0.01756551483 0.1527110453 0)
(-0.06172640354 0.2240298579 0)
(-0.0543283652 0.2164637267 0)
(-0.01880413454 0.192175256 0)
(0.02815571079 0.1672228461 0)
(0.07840885643 0.1448015518 0)
(0.1282875892 0.1252510627 0)
(0.1757607889 0.107879031 0)
(0.2194064466 0.0915088906 0)
(0.2579142652 0.07483151273 0)
(0.2897446247 0.05651944039 0)
(0.3129625525 0.03510117963 0)
(0.3250967646 0.00890382502 0)
(0.3230566144 -0.02420371099 0)
(0.3029882779 -0.06746294848 0)
(0.2601615486 -0.1268468717 0)
(0.1901792617 -0.2133258298 0)
(0.09571339781 -0.3356195726 0)
(8.459211951e-06 -0.454506766 0)
(-0.0169278056 -0.3661997293 0)
(-0.0238314155 0.2090818172 0)
(-0.03723583365 0.2313591315 0)
(0.03771493487 0.1767787362 0)
(0.1244991874 0.1362072623 0)
(0.2036177295 0.1076365723 0)
(0.2738131872 0.08632760514 0)
(0.3359616135 0.07014335769 0)
(0.3906234548 0.05743021339 0)
(0.4380806369 0.04672098005 0)
(0.4781192217 0.03683375266 0)
(0.5102536739 0.02676203124 0)
(0.5333798436 0.01555105893 0)
(0.545493819 0.00222943925 0)
(0.5438018126 -0.01438460299 0)
(0.5243052487 -0.03631658248 0)
(0.4813089523 -0.06755740437 0)
(0.4064063908 -0.1180979222 0)
(0.2874739802 -0.2089802533 0)
(0.1310135298 -0.3382727913 0)
(0.03742077285 -0.3396458029 0)
(0.2420820463 0.1093687774 0)
(0.3142359837 0.09744056747 0)
(0.4455152175 0.05702810008 0)
(0.5507113405 0.03495092386 0)
(0.6245416765 0.0234181364 0)
(0.6790656835 0.01630927372 0)
(0.721705058 0.01158031069 0)
(0.7558451314 0.008355697073 0)
(0.7832453865 0.006037353505 0)
(0.8048169656 0.004191401117 0)
(0.8207908852 0.002478460886 0)
(0.8307877746 0.0006514084594 0)
(0.8338841325 -0.001478314944 0)
(0.8285754152 -0.004063333528 0)
(0.8124168019 -0.007427698471 0)
(0.7812617365 -0.01230122285 0)
(0.7264287833 -0.02079231452 0)
(0.6306517772 -0.03784708559 0)
(0.4594941353 -0.08598959897 0)
(0.3047496605 -0.1258224718 0)
)


// ************************************************************************* //
