/*--------------------------------*- C++ -*----------------------------------*\
  =========                 |
  \\      /  F ield         | OpenFOAM: The Open Source CFD Toolbox
   \\    /   O peration     | Website:  https://openfoam.org
    \\  /    A nd           | Version:  13
     \\/     M anipulation  |
\*---------------------------------------------------------------------------*/
FoamFile
{
    format      ascii;
    class       volScalarField;
    location    "20";
    object      p;
}
// * * * * * * * * * * * * * * * * * * * * * * * * * * * * * * * * * * * * * //

dimensions      [0 2 -2 0 0 0 0];

internalField   nonuniform List<scalar> 
400
(
5.403001512e-07
-0.0005465382702
-0.000888289914
-0.001015508817
-0.0009364297911
-0.0006833971314
-0.0002939701235
0.0001958718488
0.0007496166544
0.001326792066
0.00188177579
0.002361731891
0.002711281232
0.002877346122
0.002818400416
0.002516438017
0.001991883392
0.0013018439
0.0006432331062
4.754577133e-05
0.0005884226809
7.480874113e-06
-0.0003559559588
-0.0004980150413
-0.000467109404
-0.0002898059419
4.513125511e-06
0.0003865574144
0.0008249233692
0.001282355387
0.001719028112
0.002083805371
0.002326326965
0.002399238103
0.002268668722
0.001925832267
0.001397439918
0.0007484998102
0.0001511582189
-0.0005113471279
0.0009523706321
0.00030835392
-9.257440275e-05
-0.000238628037
-0.0002322269383
-0.0001034395203
0.0001236915815
0.0004278667319
0.0007853503571
0.001164173891
0.001532416694
0.001836100074
0.002025274272
0.002051224246
0.00187881581
0.001498219125
0.0009333820519
0.0002408228691
-0.0004573457777
-0.0012940451
0.0009759003988
0.0002581602401
-0.0001917327982
-0.0003437268603
-0.0003526617085
-0.0002553269976
-7.236901408e-05
0.0001836046928
0.0004990312265
0.0008536276913
0.001206321189
0.001514104214
0.00171623013
0.001752186113
0.001573112105
0.001155616659
0.0005114978176
-0.0003125376704
-0.001227495509
-0.002377851889
0.0004803223893
-0.0002847290097
-0.0007632618899
-0.0009146315538
-0.0009352606117
-0.0008663818145
-0.0007229946709
-0.0005055804534
-0.0002138825478
0.0001428192039
0.0005341019119
0.0009116984928
0.001204421893
0.001331414762
0.001216285101
0.0008058466577
8.604430191e-05
-0.0009110812809
-0.002120608534
-0.00364856101
-0.0006860655038
-0.001466442458
-0.001955118024
-0.002105800482
-0.002148093792
-0.002124157112
-0.002039139974
-0.001875886643
-0.001613197004
-0.001240684801
-0.0007739004202
-0.0002573760183
0.0002263018124
0.0005673497514
0.0006439052624
0.0003478736183
-0.0003863181183
-0.001556894354
-0.003127150293
-0.00513371612
-0.002660640827
-0.003422013292
-0.003913509736
-0.004078453983
-0.004175210725
-0.00424349806
-0.004273673522
-0.004223780385
-0.004041426293
-0.003682874518
-0.003133614367
-0.002419398078
-0.001626097651
-0.0008960688612
-0.0004175101486
-0.0003913477705
-0.0009807166498
-0.002252687505
-0.004224293908
-0.006819106406
-0.005552513669
-0.006267201982
-0.006765123717
-0.006978545325
-0.00719115584
-0.007438058426
-0.007690655753
-0.007874615428
-0.007893596079
-0.007651271459
-0.007077540385
-0.006149500293
-0.004933867873
-0.003595320878
-0.002404815222
-0.001705764788
-0.001834613969
-0.003006280663
-0.00535922344
-0.008652217394
-0.009431041552
-0.01007727115
-0.01059378146
-0.01090538407
-0.01131980369
-0.01186842163
-0.01250237602
-0.01310932457
-0.01353621112
-0.01361079617
-0.01316931082
-0.0121078277
-0.01041502914
-0.008244220216
-0.005944870244
-0.004051336335
-0.003180265657
-0.003833409997
-0.006416509383
-0.01048095826
-0.01431087372
-0.01486990803
-0.01541655576
-0.01587505248
-0.01658169705
-0.01757028294
-0.01877540119
-0.02004578129
-0.02116270151
-0.02185754869
-0.02184061509
-0.02085535931
-0.01875546025
-0.01560459002
-0.0117808793
-0.008024584284
-0.005348404332
-0.004749443298
-0.007170527275
-0.01196806265
-0.02014639333
-0.02059682367
-0.0211667143
-0.02178790023
-0.02284189815
-0.0243783749
-0.02632523411
-0.02849760817
-0.03060975977
-0.03228433381
-0.03307531146
-0.03252065827
-0.03026300923
-0.02616038516
-0.02050821395
-0.01418911651
-0.008678525653
-0.00571494588
-0.007208148406
-0.01245509561
-0.02684659781
-0.0271527239
-0.02769294862
-0.02841255493
-0.02977733791
-0.03187537392
-0.03464300118
-0.03787162828
-0.04121405572
-0.04418383635
-0.04616623485
-0.04645701526
-0.04444197974
-0.03964024226
-0.03210299346
-0.02268275039
-0.01325262867
-0.006473738137
-0.005797482736
-0.01075435441
-0.0343235082
-0.03440745317
-0.03477873555
-0.03539313394
-0.0368791121
-0.03939539311
-0.0429032807
-0.0471788182
-0.05181946013
-0.05623664285
-0.05965761464
-0.06116908905
-0.05975882246
-0.05463658151
-0.04542364949
-0.03268420537
-0.0184395351
-0.006234109224
-0.001663506106
-0.004863922598
-0.04259774573
-0.04226801751
-0.04218441912
-0.04228431446
-0.04350095697
-0.04610195016
-0.05008313225
-0.05520197057
-0.06099512284
-0.06677544366
-0.07161946152
-0.07439323839
-0.07381430867
-0.06865844809
-0.05805737363
-0.04204893529
-0.02242867975
-0.003247205459
0.007355807219
0.008349087648
-0.05199802436
-0.05074952792
-0.04966685193
-0.04856790904
-0.04891500592
-0.05110696737
-0.05515775128
-0.06077936284
-0.067417315
-0.07427121409
-0.08026460363
-0.08405946327
-0.08411597586
-0.07882513722
-0.06683252415
-0.04751472566
-0.02211990759
0.00550853114
0.02472133587
0.03353228249
-0.06364418139
-0.06017844909
-0.05708746681
-0.05375492283
-0.05245564927
-0.05366902253
-0.05735179552
-0.06312376729
-0.07024671531
-0.07778486849
-0.08447736458
-0.08877241171
-0.08888751165
-0.08283135215
-0.0688449401
-0.04561667425
-0.01374856526
0.02441966118
0.05554211667
0.07735773045
-0.08017616024
-0.0710657748
-0.06411329104
-0.05715841275
-0.05342440705
-0.0532072311
-0.05624904843
-0.061902164
-0.06924589445
-0.077103553
-0.08399968032
-0.08814109044
-0.08747206479
-0.07965126367
-0.06247705867
-0.03405020097
0.005562755391
0.05859472733
0.105822481
0.1480669467
-0.1104996781
-0.08584808799
-0.07160165386
-0.0589677066
-0.05191005135
-0.04987832825
-0.0520959863
-0.0574999647
-0.06484919465
-0.07269756816
-0.07932975743
-0.08270505525
-0.08051399577
-0.06988377725
-0.04823185666
-0.01272425596
0.03823303056
0.1071291991
0.1779757311
0.2564734145
-0.1684318734
-0.09990406397
-0.07500605057
-0.05479679377
-0.04461772752
-0.04158271836
-0.04371306426
-0.04937466679
-0.05700855567
-0.06496139162
-0.07135274501
-0.0739726281
-0.07012384225
-0.05701074062
-0.03102834575
0.01192731071
0.07559595496
0.1664002817
0.2761579588
0.4377004874
-0.3984233128
-0.1380957112
-0.07496881236
-0.04708813744
-0.03354910999
-0.03002847152
-0.03279845317
-0.03925894221
-0.04755089036
-0.05593053592
-0.06249179429
-0.06502223038
-0.06098971144
-0.04696638437
-0.01875597316
0.02993408765
0.1069527564
0.2334236856
0.4198764761
0.7800198124
)
;

boundaryField
{
    movingWall
    {
        type            zeroGradient;
    }
    fixedWalls
    {
        type            zeroGradient;
    }
    frontAndBack
    {
        type            empty;
    }
}


// ************************************************************************* //
