/*--------------------------------*- C++ -*----------------------------------*\
  =========                 |
  \\      /  F ield         | OpenFOAM: The Open Source CFD Toolbox
   \\    /   O peration     | Website:  https://openfoam.org
    \\  /    A nd           | Version:  13
     \\/     M anipulation  |
\*---------------------------------------------------------------------------*/
FoamFile
{
    format      ascii;
    class       scalarField;
    location    "20";
    object      p_all;
}
// * * * * * * * * * * * * * * * * * * * * * * * * * * * * * * * * * * * * * //


400
(
-2.871133045e-09
-0.0004802320158
-0.001052620188
-0.00147536529
-0.001636163854
-0.001490787476
-0.001020813706
-0.000222095905
0.0008908410394
0.002272664255
0.003834704554
0.005439553773
0.006910097895
0.008056339388
0.008718784174
0.008818484802
0.008397460792
0.00763486895
0.006827891914
0.006307738248
0.0004851148887
-1.164750055e-05
-0.0005105974061
-0.0008425833243
-0.0009506534376
-0.0008105908131
-0.0004072297323
0.000267297973
0.00120664531
0.002378364994
0.003711746267
0.005092032581
0.006366662965
0.007369163042
0.007958124986
0.008062567019
0.007716739624
0.007067626297
0.006349326173
0.005818431257
0.001079707466
0.0004520008557
-7.592125311e-05
-0.0003801235685
-0.0004749574918
-0.0003668153303
-4.662684093e-05
0.0004997000005
0.001279455699
0.002278505328
0.003446243677
0.004686047711
0.005858070977
0.00679994012
0.007365334774
0.007471059245
0.007133219717
0.006470380615
0.005670261467
0.004976207717
0.001493277285
0.0006814924304
5.056925631e-05
-0.0002921220646
-0.0004243937464
-0.0003827639
-0.0001631847827
0.0002579232194
0.0009062993227
0.00179057929
0.002881741349
0.004097193151
0.005297655273
0.006304581699
0.006940488835
0.007083754555
0.006715366535
0.005928439679
0.004898171285
0.003921126264
0.00150169343
0.000500878962
-0.0002581920825
-0.0006772582585
-0.0008878996896
-0.0009506636761
-0.0008617353368
-0.0005831193112
-6.502745858e-05
0.000730021391
0.001800024667
0.003079073971
0.00442517642
0.00563133089
0.006466434157
0.006741125644
0.006374364981
0.005423492711
0.004071936638
0.002720769778
0.0009216652053
-0.0002521087131
-0.001143209173
-0.001663087266
-0.001990115624
-0.002202568786
-0.002291596675
-0.00219940206
-0.001845348311
-0.001153882123
-8.838102699e-05
0.001313673714
0.002915088578
0.004476753164
0.005693600754
0.006271381622
0.006022452595
0.004935222063
0.003202113381
0.001380959131
-0.000404071108
-0.001725288506
-0.002745283948
-0.003387893659
-0.003873666275
-0.004294083239
-0.004631567222
-0.004804112415
-0.004692902745
-0.004171836523
-0.003146956714
-0.00160398013
0.0003463922367
0.002442684766
0.004291461366
0.005448230339
0.005549144555
0.004443903793
0.00230234239
-0.0001003798098
-0.002603955294
-0.004041367134
-0.005184501375
-0.005972546787
-0.006665755625
-0.007367146989
-0.008049751091
-0.008605489034
-0.008871128311
-0.008655801816
-0.007783202664
-0.006151598715
-0.0038046052
-0.0009941979593
0.001800629961
0.003939788039
0.004785890849
0.003925804364
0.001417407348
-0.001684225351
-0.005769091614
-0.007286771225
-0.008543549757
-0.009496573359
-0.01044615763
-0.0115091699
-0.01265286603
-0.01374539352
-0.01457633408
-0.01487744919
-0.0143626321
-0.01279743992
-0.01009786861
-0.00644346466
-0.002361033914
0.001289540437
0.003483276357
0.003352130897
0.0006562784528
-0.00323324456
-0.009944724684
-0.01150207354
-0.01285290497
-0.01397431121
-0.01521202729
-0.01670460727
-0.01842229061
-0.02021692516
-0.02183378345
-0.02292060752
-0.023058574
-0.0218335828
-0.01896161209
-0.01445356665
-0.008794089714
-0.003031865639
0.001325227778
0.002701805801
0.0002383686406
-0.004429127799
-0.015128247
-0.0166784475
-0.01808045735
-0.01933322932
-0.02084296636
-0.02278550329
-0.02514792768
-0.02777773601
-0.03038465952
-0.03253454561
-0.03366479434
-0.03314725788
-0.03042888393
-0.02523720298
-0.01786976134
-0.009443560412
-0.001964143906
0.002023078004
0.0005701243171
-0.00464339662
-0.02128290865
-0.02276697066
-0.02413084632
-0.02540040778
-0.02707592993
-0.02939681654
-0.03238436286
-0.03589462283
-0.03961295744
-0.04303271622
-0.04545206693
-0.0460202633
-0.04386200963
-0.03832916085
-0.02935667912
-0.01791179633
-0.006364799756
0.001597903322
0.002382189643
-0.0027367462
-0.0283800172
-0.02970815491
-0.03085811834
-0.03190165315
-0.033499739
-0.03599455683
-0.03945789556
-0.04376120919
-0.04857124931
-0.05331804826
-0.05717353726
-0.05907475007
-0.05782888412
-0.05235209551
-0.04207223891
-0.02753827101
-0.01117720323
0.002235960559
0.006963373612
0.003234527291
-0.03649405313
-0.03749017196
-0.03809040346
-0.03847227467
-0.03957439945
-0.04188924017
-0.04554357315
-0.05041441094
-0.05613955066
-0.06208258141
-0.06729823718
-0.07053390561
-0.07030850659
-0.06511556605
-0.05381577686
-0.03631635715
-0.01467527018
0.005622299346
0.01648652801
0.01638965533
-0.04600150254
-0.04624952324
-0.04566198276
-0.04467549241
-0.04467721049
-0.04633807304
-0.04981018276
-0.05493624314
-0.06128900536
-0.06813977744
-0.07441632437
-0.07868721388
-0.07921637258
-0.07412986218
-0.06176260548
-0.04129844125
-0.0140316186
0.01453315115
0.03427322766
0.04126094579
-0.05792615507
-0.05644220336
-0.05346114455
-0.05004011411
-0.04818843007
-0.04868551636
-0.05160829449
-0.0566837667
-0.06335444655
-0.07074906264
-0.07763436722
-0.08238556315
-0.0830212633
-0.0773418235
-0.06323624
-0.03922788172
-0.00564379961
0.03279660611
0.06477929293
0.08338609293
-0.07451936347
-0.06915175462
-0.06145484249
-0.0540816275
-0.04957471324
-0.04848495232
-0.05060549554
-0.05542336346
-0.06216420977
-0.06975274589
-0.0767510115
-0.08130952088
-0.08118177684
-0.07382834025
-0.0566945195
-0.02767856644
0.01391853314
0.06490667261
0.1138345812
0.1495404158
-0.1028547221
-0.08683327261
-0.06928392207
-0.05590594873
-0.04808932984
-0.04524882002
-0.04656551018
-0.05113027737
-0.0578572566
-0.06542542758
-0.07218351887
-0.07604563007
-0.07448620144
-0.06457616344
-0.04317605361
-0.007293844993
0.0452377499
0.1139133516
0.1902508798
0.2570806772
-0.1749266467
-0.1140088089
-0.07329328658
-0.0518848614
-0.04125581026
-0.03740523609
-0.03861372975
-0.0434775454
-0.05053852952
-0.0582579146
-0.06487605624
-0.06815259713
-0.06534786255
-0.05318608093
-0.02785316418
0.01507535309
0.08081356453
0.1752648231
0.3030922937
0.4511871118
-0.354808768
-0.1544026249
-0.07001547845
-0.042740527
-0.0314116512
-0.02744099213
-0.02916654458
-0.03482362505
-0.04260837909
-0.05083001125
-0.05765538422
-0.06085115729
-0.05766689861
-0.04472554866
-0.01759102319
0.02976878484
0.1069348787
0.2317110795
0.4331639038
0.7343753534
)


// ************************************************************************* //
