/*--------------------------------*- C++ -*----------------------------------*\
  =========                 |
  \\      /  F ield         | OpenFOAM: The Open Source CFD Toolbox
   \\    /   O peration     | Website:  https://openfoam.org
    \\  /    A nd           | Version:  13
     \\/     M anipulation  |
\*---------------------------------------------------------------------------*/
FoamFile
{
    format      ascii;
    class       volVectorField;
    location    "20";
    object      U_0;
}
// * * * * * * * * * * * * * * * * * * * * * * * * * * * * * * * * * * * * * //

dimensions      [0 1 -1 0 0 0 0];

internalField   nonuniform List<vector> 
400
(
(0.0001495970603 -0.0001525905857 0)
(-0.0001773674923 5.39018885e-05 0)
(-0.001483586308 0.0002737449594 0)
(-0.003564433988 0.0004144173132 0)
(-0.006102745844 0.0004873532409 0)
(-0.008819797966 0.0005116221473 0)
(-0.01148555272 0.0004968299671 0)
(-0.01388944418 0.0004433073184 0)
(-0.01581940198 0.0003464264049 0)
(-0.01706062016 0.000202593057 0)
(-0.01741678039 1.540913144e-05 0)
(-0.01675069838 -0.0001995481946 0)
(-0.01503494782 -0.0004125544873 0)
(-0.01239729416 -0.0005827701595 0)
(-0.009142024316 -0.0006668121298 0)
(-0.005728861297 -0.0006319256379 0)
(-0.002700054544 -0.0004693002345 0)
(-0.0005570190808 -0.0002029343286 0)
(0.000407920889 9.543900384e-05 0)
(0.0002688109362 0.0002627352114 0)
(-6.590196355e-05 0.0001748642169 0)
(-0.001925750842 0.001812129243 0)
(-0.005917476475 0.003476777204 0)
(-0.01153186484 0.004619949774 0)
(-0.01808681489 0.005212271641 0)
(-0.02496666611 0.005324655662 0)
(-0.031620915 0.005009191223 0)
(-0.03752804926 0.00427963963 0)
(-0.04217434795 0.003133231283 0)
(-0.04506616587 0.001588413002 0)
(-0.04578121569 -0.0002767930597 0)
(-0.04405129235 -0.002298096041 0)
(-0.03985846166 -0.004220588665 0)
(-0.03351665955 -0.005726428016 0)
(-0.02570494707 -0.006497761054 0)
(-0.01742037976 -0.006307365486 0)
(-0.009829183874 -0.005115067194 0)
(-0.004019564946 -0.003143249211 0)
(-0.0006842495205 -0.0009383375808 0)
(0.0001733763878 0.0004545810313 0)
(-0.0003413891034 0.00162482288 0)
(-0.004070094395 0.005950923983 0)
(-0.01078058067 0.00978000721 0)
(-0.01960667199 0.01235945762 0)
(-0.02957414314 0.01364676932 0)
(-0.03985111963 0.0137617306 0)
(-0.04967849845 0.01279774871 0)
(-0.05832614196 0.01078922967 0)
(-0.06508013316 0.007756208696 0)
(-0.06926842284 0.003780495114 0)
(-0.07032812329 -0.0009188566969 0)
(-0.06790600453 -0.005935755613 0)
(-0.0619731154 -0.01067441378 0)
(-0.05292570725 -0.01441037792 0)
(-0.04163659598 -0.01642415734 0)
(-0.02941569123 -0.01619608667 0)
(-0.01784256799 -0.01362163054 0)
(-0.008464209006 -0.009183167185 0)
(-0.002415620881 -0.004037911384 0)
(-6.123901335e-06 -0.0001657935204 0)
(-0.0005890085748 0.004215521739 0)
(-0.006122003265 0.01246554736 0)
(-0.01543432788 0.01905137279 0)
(-0.02724046375 0.02332828422 0)
(-0.04027195424 0.0253516793 0)
(-0.05353409058 0.02532576627 0)
(-0.06613617182 0.02339479266 0)
(-0.07721968868 0.01961880006 0)
(-0.08594182819 0.01405044824 0)
(-0.09150272974 0.006853343715 0)
(-0.09321522699 -0.00158347829 0)
(-0.09061049682 -0.01056988901 0)
(-0.08356609159 -0.01910718892 0)
(-0.07243541812 -0.02597530014 0)
(-0.05814488829 -0.02993444111 0)
(-0.04220645152 -0.03003816299 0)
(-0.02658079166 -0.02600540899 0)
(-0.01335185189 -0.018537621 0)
(-0.004274596767 -0.009448894249 0)
(-0.0001608100392 -0.001694240623 0)
(-0.0008024750106 0.007842892778 0)
(-0.007970585007 0.02116591162 0)
(-0.01967188846 0.03102393136 0)
(-0.03420818188 0.03717489659 0)
(-0.0500312288 0.0399230262 0)
(-0.06602121441 0.03962355634 0)
(-0.08121240298 0.0364936503 0)
(-0.09467906512 0.0306206147 0)
(-0.105500169 0.02208197421 0)
(-0.1127733846 0.0111097841 0)
(-0.1156736621 -0.001752693267 0)
(-0.1135547468 -0.01554059919 0)
(-0.1060904757 -0.02883744889 0)
(-0.09344696127 -0.03986319024 0)
(-0.07645817322 -0.04672276108 0)
(-0.05674212387 -0.04783978955 0)
(-0.03665480078 -0.04253299408 0)
(-0.0189769718 -0.0315699173 0)
(-0.006348148264 -0.01742246336 0)
(-0.0003034510519 -0.004172277724 0)
(-0.0009820581607 0.01237993786 0)
(-0.009574483352 0.03181696768 0)
(-0.02338174009 0.04542932466 0)
(-0.04034469985 0.05362534045 0)
(-0.05867348043 0.05711142677 0)
(-0.07716346692 0.0564751236 0)
(-0.09482356011 0.05203738521 0)
(-0.1107133502 0.04391078895 0)
(-0.1238769885 0.03217190555 0)
(-0.1333302059 0.01707565359 0)
(-0.1380943104 -0.0007399358494 0)
(-0.1372830217 -0.0200935713 0)
(-0.1302521627 -0.03917955801 0)
(-0.1168204045 -0.05561523964 0)
(-0.09754800412 -0.06669358588 0)
(-0.07400989294 -0.06992017989 0)
(-0.0489243151 -0.06384426798 0)
(-0.02593366259 -0.04899609492 0)
(-0.008917548997 -0.02845971793 0)
(-0.0004742713844 -0.007740755154 0)
(-0.001124181539 0.01768826371 0)
(-0.01089164912 0.04413700123 0)
(-0.02645034092 0.06194024844 0)
(-0.04545415653 0.07235970465 0)
(-0.06592309321 0.07664538804 0)
(-0.08661180822 0.07570163648 0)
(-0.106552307 0.06998868941 0)
(-0.1248416985 0.05964002982 0)
(-0.1405378442 0.04469192388 0)
(-0.1526087359 0.02535033326 0)
(-0.1599293226 0.002249879822 0)
(-0.1613395357 -0.02331966562 0)
(-0.1557871552 -0.04924695151 0)
(-0.1425847825 -0.07255215322 0)
(-0.1217944286 -0.08957348868 0)
(-0.09469829185 -0.09654874857 0)
(-0.06420834387 -0.09071879485 0)
(-0.03490606923 -0.07183381469 0)
(-0.01234296638 -0.04339288515 0)
(-0.000721862652 -0.01271677955 0)
(-0.001222905738 0.02360669423 0)
(-0.01187154949 0.05778319183 0)
(-0.02874670771 0.08014133207 0)
(-0.0492951086 0.09295210017 0)
(-0.07140001302 0.09813450654 0)
(-0.0938187197 0.09699369993 0)
(-0.1156540776 0.09016952105 0)
(-0.1360964722 0.07781468564 0)
(-0.1542790898 0.05988180907 0)
(-0.16918372 0.03644211755 0)
(-0.1795904653 0.008000958393 0)
(-0.1840896067 -0.02419766202 0)
(-0.1811907378 -0.05788971979 0)
(-0.1695799477 -0.08959208503 0)
(-0.1485772395 -0.1146262341 0)
(-0.1188094206 -0.1276216231 0)
(-0.08300108827 -0.1238173496 0)
(-0.04652756257 -0.1012896352 0)
(-0.01702784064 -0.0633938205 0)
(-0.001106329851 -0.01962009283 0)
(-0.001274070425 0.02994769097 0)
(-0.01247271445 0.07234709019 0)
(-0.03015080945 0.0995144146 0)
(-0.05161973907 0.1148327003 0)
(-0.07467175584 0.1209999714 0)
(-0.09810488621 0.1198071043 0)
(-0.1211382327 0.1121225096 0)
(-0.1431147513 0.09812750608 0)
(-0.1633194842 0.07765751675 0)
(-0.1808423953 0.05056766832 0)
(-0.194476151 0.01709977478 0)
(-0.2026657248 -0.0217353037 0)
(-0.2035492896 -0.06374797975 0)
(-0.1951569214 -0.1051720057 0)
(-0.1758652463 -0.1404156367 0)
(-0.145213339 -0.1622938124 0)
(-0.1051144408 -0.1632969174 0)
(-0.06120839857 -0.1385138281 0)
(-0.02339805869 -0.08991845575 0)
(-0.001707710594 -0.02919355846 0)
(-0.001281989626 0.0365097631 0)
(-0.01269738156 0.08737147037 0)
(-0.03061387771 0.1194420799 0)
(-0.0522574612 0.1372669958 0)
(-0.07536148278 0.1444243181 0)
(-0.09879713458 0.1432808388 0)
(-0.1219427787 0.1349957192 0)
(-0.1443544586 0.1198077674 0)
(-0.1655555507 0.09742632551 0)
(-0.184865118 0.06743530545 0)
(-0.2012475706 0.02969769527 0)
(-0.21319148 -0.01520244587 0)
(-0.2186511828 -0.0654357419 0)
(-0.2151172035 -0.1173131517 0)
(-0.1999552563 -0.1646741147 0)
(-0.1712264255 -0.1986105591 0)
(-0.1292339181 -0.2082860514 0)
(-0.07886211793 -0.1841587068 0)
(-0.03185422986 -0.1245484991 0)
(-0.002637095107 -0.04242247412 0)
(-0.001269268456 0.04311398856 0)
(-0.01264191004 0.1024008314 0)
(-0.03024424767 0.1392405338 0)
(-0.05123198633 0.1593622035 0)
(-0.07329868675 0.1673327746 0)
(-0.09542416298 0.1661962112 0)
(-0.1171923022 0.1574791095 0)
(-0.1384322172 0.1415296829 0)
(-0.1589914211 0.117957035 0)
(-0.1785459312 0.08606426873 0)
(-0.1964173801 0.04526931818 0)
(-0.211388472 -0.004430417419 0)
(-0.2215302697 -0.06186589705 0)
(-0.22408777 -0.1238945907 0)
(-0.215578429 -0.184399021 0)
(-0.1924036672 -0.2332881498 0)
(-0.1524807803 -0.256317303 0)
(-0.09849954652 -0.2377099492 0)
(-0.04264729716 -0.1686535955 0)
(-0.004047444396 -0.0605385543 0)
(-0.001291159431 0.04967489192 0)
(-0.01256424868 0.1170755523 0)
(-0.02941131442 0.1582277075 0)
(-0.04889212704 0.180105787 0)
(-0.06867996469 0.1884153685 0)
(-0.08792494421 0.1869948121 0)
(-0.1064811941 0.177822199 0)
(-0.1245123199 0.1614223935 0)
(-0.1422622208 0.1373626362 0)
(-0.159869494 0.1047087857 0)
(-0.1771799605 0.06243898651 0)
(-0.1935275118 0.009884828532 0)
(-0.2074599866 -0.05268177371 0)
(-0.2164305586 -0.1231607725 0)
(-0.216560126 -0.1962938365 0)
(-0.2027919004 -0.2618560804 0)
(-0.1702033837 -0.3029471584 0)
(-0.1177592235 -0.2966664688 0)
(-0.05562078048 -0.222772287 0)
(-0.006139455664 -0.08497090639 0)
(-0.001458667533 0.05632125385 0)
(-0.01297420387 0.131274638 0)
(-0.0288570185 0.1758184354 0)
(-0.04602189182 0.1984237703 0)
(-0.06217977022 0.2061807958 0)
(-0.07678210302 0.2038535049 0)
(-0.0900618831 0.1939409357 0)
(-0.1025870312 0.1772030244 0)
(-0.1150464983 0.1532358317 0)
(-0.1280968188 0.1209528843 0)
(-0.1422040368 0.07897465018 0)
(-0.1574349839 0.0260040489 0)
(-0.1731454992 -0.0386778285 0)
(-0.1875256612 -0.1143893542 0)
(-0.1970089306 -0.1975783463 0)
(-0.1957787223 -0.2793400937 0)
(-0.1762558979 -0.3418945197 0)
(-0.1325835792 -0.3558493191 0)
(-0.06978702183 -0.2856544983 0)
(-0.009151480059 -0.1171637066 0)
(-0.001980063737 0.06359087914 0)
(-0.01475764155 0.1453018842 0)
(-0.02979162584 0.1916131036 0)
(-0.04386155319 0.2132169184 0)
(-0.05489960424 0.2190021645 0)
(-0.06292605527 0.2147791753 0)
(-0.06873476703 0.2035781135 0)
(-0.07338363171 0.1864018635 0)
(-0.07802718539 0.1629209957 0)
(-0.08382840009 0.1319899929 0)
(-0.09186581963 0.09200818183 0)
(-0.1029863369 0.04120578082 0)
(-0.1175395176 -0.02201903701 0)
(-0.1348979189 -0.09849785978 0)
(-0.1526337821 -0.1869944132 0)
(-0.1653377498 -0.2814706078 0)
(-0.1638139122 -0.3659514177 0)
(-0.1372745704 -0.4073063016 0)
(-0.08277502789 -0.3531080432 0)
(-0.0132793082 -0.1581080835 0)
(-0.003219468617 0.07272097377 0)
(-0.01932291386 0.1600805829 0)
(-0.03387779037 0.2053944113 0)
(-0.04384613171 0.2232816286 0)
(-0.04788334182 0.2250673499 0)
(-0.04707793604 0.2176359276 0)
(-0.04305765544 0.2044225865 0)
(-0.03746725421 0.1865768726 0)
(-0.03191623837 0.1638214478 0)
(-0.02799879395 0.1350113193 0)
(-0.02729775848 0.09846902978 0)
(-0.03133638604 0.052185673 0)
(-0.04143015575 -0.006016813649 0)
(-0.05832775118 -0.07820684963 0)
(-0.08140819939 -0.1655512173 0)
(-0.1070546642 -0.2660193142 0)
(-0.1263583769 -0.3685287554 0)
(-0.1248998473 -0.4411632956 0)
(-0.09025091677 -0.4171862385 0)
(-0.01835511915 -0.2075174154 0)
(-0.005681619419 0.08613378277 0)
(-0.02858105862 0.1772346347 0)
(-0.04266714228 0.2167546437 0)
(-0.04636956086 0.2268422729 0)
(-0.04034816095 0.2220060442 0)
(-0.02761779254 0.2099118898 0)
(-0.01096886925 0.1940148747 0)
(0.007307698364 0.1753536797 0)
(0.0252168095 0.1535830813 0)
(0.04087373382 0.1275561891 0)
(0.05237597582 0.09562946856 0)
(0.05773916793 0.05579439384 0)
(0.0549051963 0.005705865524 0)
(0.04189274682 -0.05735202232 0)
(0.01731289249 -0.1363621131 0)
(-0.01810313759 -0.2334791846 0)
(-0.05814565506 -0.3451077824 0)
(-0.08764666958 -0.447123143 0)
(-0.08542821578 -0.4664451561 0)
(-0.02317256406 -0.2633380041 0)
(-0.009912602007 0.1089803871 0)
(-0.0439999396 0.1987673142 0)
(-0.05472184106 0.2236135755 0)
(-0.04610385095 0.2200707638 0)
(-0.02404710114 0.2057843361 0)
(0.005372486239 0.1880043939 0)
(0.0381302308 0.1693566215 0)
(0.07148873863 0.1503011476 0)
(0.103329019 0.1302003051 0)
(0.1317498913 0.1078513962 0)
(0.1548076124 0.08171882203 0)
(0.1703527443 0.04999198887 0)
(0.1759226533 0.01053932109 0)
(0.1687131674 -0.03931567178 0)
(0.1457085128 -0.1032550904 0)
(0.104526147 -0.186471649 0)
(0.04655893785 -0.2937185772 0)
(-0.01663094553 -0.4154891483 0)
(-0.05889268863 -0.486456646 0)
(-0.02490068846 -0.3218099414 0)
(-0.01768221374 0.152236158 0)
(-0.0615691362 0.2237954242 0)
(-0.05340979675 0.2169716678 0)
(-0.01676416601 0.1934082757 0)
(0.03155428182 0.1689648575 0)
(0.0832734265 0.1467818628 0)
(0.1345827669 0.1272382846 0)
(0.1833292109 0.109683815 0)
(0.2280041457 0.09299014317 0)
(0.2672381328 0.07588543206 0)
(0.2994831154 0.05703691024 0)
(0.3228207639 0.03499732129 0)
(0.3347982419 0.008149855719 0)
(0.3323269155 -0.02556711168 0)
(0.3115105021 -0.06931840772 0)
(0.2676438723 -0.1289900683 0)
(0.1964252343 -0.2154023904 0)
(0.1002638945 -0.3375463858 0)
(0.002706556547 -0.4560794816 0)
(-0.01638971987 -0.3682415497 0)
(-0.02401660925 0.2087398442 0)
(-0.03755743067 0.2308535141 0)
(0.03746292071 0.1766082105 0)
(0.1246941637 0.1364034264 0)
(0.2045624685 0.1081960716 0)
(0.2756575356 0.08714312648 0)
(0.3387897574 0.07105840412 0)
(0.3944103124 0.05831465812 0)
(0.4427072046 0.04747601709 0)
(0.4834655197 0.03737631221 0)
(0.5161420378 0.02699867156 0)
(0.539486023 0.01541928135 0)
(0.5515037463 0.001700958363 0)
(0.5494274141 -0.0152681167 0)
(0.5293146215 -0.03736023309 0)
(0.4855479645 -0.06849045276 0)
(0.4096508971 -0.1187646366 0)
(0.2897988345 -0.2092679851 0)
(0.1325051373 -0.3382987003 0)
(0.03824431301 -0.3401333625 0)
(0.2420045747 0.1092770446 0)
(0.3138907141 0.09732455383 0)
(0.4449496716 0.0570564763 0)
(0.550157396 0.03508494284 0)
(0.624189613 0.02363065987 0)
(0.6791209184 0.01655495275 0)
(0.7223271971 0.01182520816 0)
(0.7570581732 0.008579934568 0)
(0.7849629272 0.006215533976 0)
(0.8068879509 0.004286182127 0)
(0.823022002 0.002466313333 0)
(0.8329599749 0.0005301423219 0)
(0.8357801386 -0.001707712298 0)
(0.8299876775 -0.004397692609 0)
(0.813176535 -0.007867430189 0)
(0.7813404688 -0.01280929005 0)
(0.7260518527 -0.02128063576 0)
(0.630160111 -0.03822706308 0)
(0.459345545 -0.08585424938 0)
(0.3048639035 -0.1257603936 0)
)
;

boundaryField
{
    movingWall
    {
        type            calculated;
        value           uniform (1 0 0);
    }
    fixedWalls
    {
        type            calculated;
        value           uniform (0 0 0);
    }
    frontAndBack
    {
        type            empty;
    }
}


// ************************************************************************* //
