/*--------------------------------*- C++ -*----------------------------------*\
  =========                 |
  \\      /  F ield         | OpenFOAM: The Open Source CFD Toolbox
   \\    /   O peration     | Website:  https://openfoam.org
    \\  /    A nd           | Version:  13
     \\/     M anipulation  |
\*---------------------------------------------------------------------------*/
FoamFile
{
    format      ascii;
    class       volVectorField;
    location    "20";
    object      U_0;
}
// * * * * * * * * * * * * * * * * * * * * * * * * * * * * * * * * * * * * * //

dimensions      [0 1 -1 0 0 0 0];

internalField   nonuniform List<vector> 
400
(
(1.090510617e-05 -3.77767131e-05 0)
(-0.0006660220647 0.0004129455183 -1.546965444e-23)
(-0.002184664436 0.0009200669206 0)
(-0.004046341484 0.0013122684 0)
(-0.005969569122 0.001534448219 6.830385306e-25)
(-0.007759760917 0.001569214543 4.150774284e-24)
(-0.009280961306 0.001422999341 -7.321274857e-24)
(-0.01043201077 0.001119297612 7.586012707e-24)
(-0.01113278681 0.0006958411215 -2.100106718e-25)
(-0.01132324824 0.0002030337276 -4.002043074e-24)
(-0.01096832875 -0.0003000951055 5.812059553e-24)
(-0.01006952492 -0.0007472463616 -5.936763976e-23)
(-0.008677870605 -0.001075233588 -6.560812547e-23)
(-0.006901699229 -0.001232740015 -7.793297373e-23)
(-0.004910393492 -0.001192436679 4.579801093e-24)
(-0.002927536173 -0.0009618747038 -4.145019018e-24)
(-0.001206005492 -0.0005913332267 -2.003949432e-22)
(-1.983647437e-05 -0.0001701266084 0)
(0.0005176034896 0.0001717889157 1.534785346e-25)
(0.0002226103078 0.000305783388 -2.88422105e-24)
(-0.0002632820483 0.0008287296448 1.384820915e-25)
(-0.002702187011 0.003382496463 1.556698662e-23)
(-0.006904230008 0.005602085815 1.548730648e-25)
(-0.0119469559 0.007005122912 -8.472959923e-25)
(-0.01712734882 0.007550474855 1.158619973e-24)
(-0.02196558961 0.007291107416 1.302061051e-23)
(-0.02609939317 0.006319371479 1.437423234e-24)
(-0.02925328226 0.004752511374 -7.336396953e-24)
(-0.03121405702 0.002736470631 1.018203033e-23)
(-0.03182973328 0.000452750512 4.518518047e-24)
(-0.03101640804 -0.001882830214 -6.328095092e-24)
(-0.02878361075 -0.004020980968 2.957789823e-24)
(-0.02526388435 -0.005705901489 3.899442829e-23)
(-0.02072669421 -0.006704941222 -1.957989366e-24)
(-0.01558654901 -0.006852047338 3.761380722e-24)
(-0.01038390479 -0.006096067347 -9.767507059e-23)
(-0.005730340701 -0.004545659769 9.665281717e-23)
(-0.002234031174 -0.002507708867 -4.011185775e-25)
(-0.0001823891868 -0.0005031778792 4.112348665e-25)
(8.334432879e-05 0.0006092847955 0)
(-0.0004186059775 0.002933873817 -2.910952904e-25)
(-0.004645595286 0.008800026737 1.703567763e-23)
(-0.01136637745 0.01323426129 -8.250063025e-24)
(-0.01931787703 0.01578470367 -2.065961654e-25)
(-0.0274609194 0.01652249219 2.029591857e-25)
(-0.03510125226 0.01563762762 8.225100175e-27)
(-0.04169431633 0.01335462918 -1.26825495e-24)
(-0.04681493486 0.009916392195 -4.583862502e-25)
(-0.05012852197 0.005601325322 -1.066165605e-23)
(-0.05139139534 0.0007456479539 0)
(-0.05045847128 -0.004238463943 0)
(-0.0473199893 -0.008882216797 2.675229039e-23)
(-0.04214522688 -0.01267579495 2.817402204e-23)
(-0.03530369337 -0.01512985896 -1.649634545e-24)
(-0.02738266228 -0.01585630311 4.858527634e-23)
(-0.01916579127 -0.01466906917 9.445033925e-23)
(-0.01155900491 -0.01169112085 4.005871604e-23)
(-0.005464977368 -0.007450110458 4.243421622e-25)
(-0.001451275407 -0.002936779581 1.020094884e-25)
(-9.072862156e-05 0.0002249413625 0)
(-0.0005021689775 0.006042553225 -4.247582519e-23)
(-0.006399414918 0.01636290368 -1.693768984e-23)
(-0.01552710195 0.02354799861 8.176810674e-24)
(-0.02626596739 0.02742862369 0)
(-0.03726920507 0.02830804414 0)
(-0.04766761007 0.02657620921 0)
(-0.05677032627 0.02262228118 -4.643861552e-26)
(-0.06402519284 0.01683056533 -2.100936953e-24)
(-0.06898114185 0.009620496638 0)
(-0.07127897887 0.001493280512 1.646305892e-24)
(-0.07068089827 -0.006930733968 2.809866144e-25)
(-0.06710551901 -0.0149215514 -2.817733709e-25)
(-0.06067785186 -0.0216567793 0)
(-0.05179055601 -0.02630492026 4.145609504e-23)
(-0.04113742205 -0.02815025662 -4.693895133e-23)
(-0.0297114407 -0.02676517806 -2.777333684e-23)
(-0.01873250549 -0.02220956055 -3.991530759e-23)
(-0.009485996927 -0.01521657862 7.792205334e-25)
(-0.002976428827 -0.007298125536 9.751275738e-23)
(-0.0002318234895 -0.0008670729361 0)
(-0.000531301852 0.01009009988 4.268243577e-23)
(-0.007979482193 0.02593945823 4.781114269e-25)
(-0.01938712608 0.0364111501 -4.671915035e-25)
(-0.03280771149 0.04183541076 0)
(-0.04662458162 0.04287540464 7.769056187e-25)
(-0.05982450978 0.04018366402 -7.661335293e-25)
(-0.07160075533 0.03433426485 3.665094209e-23)
(-0.08129233939 0.02584848688 1.840275996e-23)
(-0.08832931398 0.01527040626 6.212166903e-24)
(-0.09221802128 0.00324921689 -1.648223857e-24)
(-0.09256863029 -0.00939950882 0)
(-0.08914323812 -0.02166211701 4.389045119e-25)
(-0.08193147536 -0.03235177987 1.016081226e-23)
(-0.07124539483 -0.04019548793 -4.362475294e-23)
(-0.05780207003 -0.04400395545 1.941841718e-24)
(-0.04277308414 -0.04293409717 4.248806306e-23)
(-0.02774665974 -0.03682303599 -3.893364028e-25)
(-0.01454672336 -0.02652125998 0)
(-0.004858247671 -0.01408270023 5.433198918e-23)
(-0.0003640160904 -0.002847406176 -2.560426732e-22)
(-0.0005269448335 0.01499188869 9.837139111e-23)
(-0.009373397146 0.03737193345 -4.905474302e-25)
(-0.02287103192 0.05167745702 0)
(-0.03881256155 0.05891451975 0)
(-0.0553617837 0.06022918545 -8.725337689e-23)
(-0.07139782315 0.05659581338 -8.490820905e-23)
(-0.08603059193 0.0487838149 -4.059592589e-23)
(-0.098511309 0.03742859099 -1.500055514e-23)
(-0.10815292 0.02315600428 -5.345145674e-24)
(-0.1143023992 0.006713335884 -8.155733342e-24)
(-0.1163636569 -0.01092223955 6.579466492e-24)
(-0.1138553701 -0.02847279543 8.784991342e-24)
(-0.1065142673 -0.04434940642 -1.890417131e-23)
(-0.09443867938 -0.0567299062 4.428849895e-24)
(-0.07824509471 -0.06375952495 0)
(-0.05921174943 -0.06391389459 -1.590017213e-23)
(-0.03932870218 -0.05652165707 -1.85505722e-26)
(-0.02113602787 -0.04234750803 0)
(-0.007316688885 -0.02397768048 -1.516361027e-22)
(-0.0005214107976 -0.005925171682 6.046476661e-22)
(-0.0004988847148 0.02063576261 -9.770122004e-23)
(-0.01052501633 0.05043033815 2.830731575e-22)
(-0.02581872519 0.06909303507 1.526144092e-22)
(-0.04400329637 0.07845755887 3.616958307e-24)
(-0.06308218337 0.08026091374 -7.315700214e-23)
(-0.08187242842 0.07585092424 9.034677604e-23)
(-0.09944070654 0.06619407901 -3.586729827e-24)
(-0.1149818451 0.05200236147 -1.726755327e-24)
(-0.1277085355 0.03391807868 2.520416936e-24)
(-0.1368029122 0.01270607354 7.364684005e-24)
(-0.1414272666 -0.01057531067 -6.480302196e-24)
(-0.1407830802 -0.03444007909 -9.742171118e-24)
(-0.1342363206 -0.05690159874 -3.259836748e-23)
(-0.1215115172 -0.07550334805 -3.630899178e-23)
(-0.1029396391 -0.0875118287 5.583192809e-25)
(-0.07974272576 -0.09036337921 0)
(-0.05425273502 -0.08242142332 0)
(-0.02986386648 -0.06396091666 -2.898728182e-24)
(-0.0106600384 -0.03797956723 2.963014715e-24)
(-0.0007348246744 -0.01049926486 1.02737671e-22)
(-0.0004478348024 0.02686009013 0)
(-0.01134527749 0.06477812062 2.001139221e-22)
(-0.02800622048 0.08825720011 8.958344026e-23)
(-0.04798205063 0.1000811954 0)
(-0.06918277732 0.1026669076 1.568864213e-22)
(-0.0904143733 0.09778027927 0)
(-0.11074868 0.08658341447 -1.427282524e-22)
(-0.1293709624 0.06982151837 6.509637492e-24)
(-0.1454361272 0.04807489572 0)
(-0.1579928515 0.02202088193 0)
(-0.1659710572 -0.007320841655 -1.372346423e-24)
(-0.1682262033 -0.03836561158 -9.295936571e-25)
(-0.1636681158 -0.0688095071 1.489234472e-22)
(-0.151486397 -0.09554735963 -4.702006564e-23)
(-0.1314840922 -0.1147922402 -2.552985722e-24)
(-0.1045364597 -0.122533932 1.52720402e-24)
(-0.07307728576 -0.1155203055 -1.551294566e-24)
(-0.04134090872 -0.09280791723 0)
(-0.01524874421 -0.05739464657 3.199394306e-24)
(-0.001043978197 -0.01714383759 -1.011736735e-21)
(-0.0003745281928 0.03344863504 0)
(-0.01174714668 0.0799552405 -1.127750786e-22)
(-0.02919952026 0.1085943226 -6.188451743e-22)
(-0.05030432404 0.1231749251 -3.753554626e-22)
(-0.07294440169 0.1268630885 0)
(-0.09596564696 0.1218849496 4.117000984e-22)
(-0.1184990367 0.1096031608 1.25994783e-22)
(-0.1397829878 0.09076151987 -5.577207214e-24)
(-0.1589882311 0.06580470256 5.549603049e-24)
(-0.1751109513 0.03521145396 0)
(-0.1869205699 -0.0001827456469 2.909618684e-23)
(-0.1929824547 -0.03887326583 4.690311103e-24)
(-0.1917476891 -0.07840598554 -1.075209719e-22)
(-0.1817565762 -0.1151472092 7.989333271e-23)
(-0.1620296871 -0.144217008 -2.416212718e-22)
(-0.1326835684 -0.1598118504 0)
(-0.09576214181 -0.156272413 0)
(-0.05600615216 -0.1302677938 0)
(-0.02147444307 -0.08379306155 0)
(-0.001499993918 -0.02664979838 5.566025895e-22)
(-0.0002876079426 0.04014509998 0)
(-0.01169215498 0.0953991356 -3.491555859e-22)
(-0.0292400589 0.1293585217 8.929114359e-22)
(-0.05060140705 0.1468770253 3.615487178e-22)
(-0.07368883315 0.1519240504 0)
(-0.09743589695 0.1472315814 -3.860260269e-22)
(-0.1210883906 0.1343846944 -3.172457279e-23)
(-0.1440117069 0.1141164419 3.331069264e-22)
(-0.1654921768 0.0866896544 1.768345436e-22)
(-0.1846020205 0.05229332338 -4.057514125e-23)
(-0.2001095685 0.01143110064 1.656249241e-23)
(-0.2104393829 -0.03468963263 -8.258218102e-24)
(-0.2136983717 -0.08373193071 3.369350858e-22)
(-0.207799731 -0.1318347635 0)
(-0.1908032519 -0.1732299951 2.41738003e-22)
(-0.1616151674 -0.2002121469 5.764198393e-24)
(-0.1211514417 -0.2039676263 -5.850159659e-24)
(-0.0738400445 -0.1771753191 1.545113921e-22)
(-0.02971345653 -0.1188405836 -5.425599036e-24)
(-0.002179103389 -0.04004629225 0)
(-0.0002120885733 0.04670038698 0)
(-0.01125033642 0.1105116911 0)
(-0.02815589732 0.1496848446 -5.020741239e-22)
(-0.04874304234 0.1700967518 -1.880240804e-23)
(-0.07099742443 0.1765728914 2.037403744e-23)
(-0.09398950848 0.1724068544 -2.013347751e-23)
(-0.1171372879 0.1594515906 -2.315597807e-23)
(-0.140011233 0.1384571621 -3.027959225e-22)
(-0.1621261107 0.1095055779 6.696910406e-23)
(-0.1827893817 0.07245397669 4.510211662e-23)
(-0.2009773106 0.02736305255 -4.574629888e-23)
(-0.2152207895 -0.02506292593 0)
(-0.2235494808 -0.0829508199 -7.829063946e-23)
(-0.2234554219 -0.1426860233 0)
(-0.2120588303 -0.1981371651 -3.737027092e-22)
(-0.1867333732 -0.2400295941 5.240504106e-22)
(-0.1464339607 -0.2560302773 0)
(-0.09393787404 -0.233079944 -1.490759218e-22)
(-0.04021589671 -0.1639330549 1.934211787e-22)
(-0.003200631081 -0.05860054579 -3.408203837e-22)
(-0.0002020371442 0.05296054739 0)
(-0.01067481998 0.1247801243 9.179813141e-22)
(-0.02628844326 0.1686925741 -2.439822837e-23)
(-0.04501628582 0.1915910327 9.190126651e-22)
(-0.06495201851 0.1992397858 -2.511108919e-23)
(-0.08537306161 0.1955653395 2.837563985e-23)
(-0.1059382164 0.1827541835 -2.81166173e-23)
(-0.1265011982 0.1616362506 -1.660112825e-23)
(-0.1469097735 0.1321669756 -5.257707973e-22)
(-0.1668571535 0.09389943666 -8.902294526e-24)
(-0.1857424745 0.0464195763 9.655595607e-24)
(-0.2024904807 -0.01021496849 3.311741723e-22)
(-0.2154267728 -0.0749679248 -5.8180325e-22)
(-0.2220299172 -0.1449950155 0)
(-0.2188086858 -0.2146351895 8.882470078e-22)
(-0.2016272208 -0.2739573592 -4.936704735e-22)
(-0.1668618949 -0.3075357908 -1.570894035e-23)
(-0.1140182448 -0.2953392133 0)
(-0.05288181018 -0.2195490134 -1.886901826e-22)
(-0.004748741432 -0.08376059018 3.35731942e-22)
(-0.0003647880078 0.05900962703 1.550507185e-23)
(-0.01049972498 0.1379542343 -8.761280955e-22)
(-0.02442209003 0.1856339679 -1.156721433e-21)
(-0.04027933446 0.210087245 -8.625974171e-22)
(-0.05632276185 0.2181856092 0)
(-0.07216699386 0.2145768557 3.512448861e-23)
(-0.08781333778 0.2018475457 -7.291997242e-23)
(-0.1034799203 0.1809811796 5.86553099e-23)
(-0.1194243183 0.1518928072 3.020034745e-22)
(-0.1358209461 0.1139196337 -1.127748801e-23)
(-0.1526371894 0.06622851026 0)
(-0.1694811242 0.008198951784 -3.602455487e-22)
(-0.1853036689 -0.06013259526 7.513091237e-22)
(-0.198069494 -0.1372434479 8.829089733e-22)
(-0.2043745627 -0.2188917309 -5.294172901e-22)
(-0.1991116229 -0.2959339259 5.160693198e-22)
(-0.1760679012 -0.3513677061 1.077104652e-23)
(-0.1300909391 -0.35837626 -1.094401574e-23)
(-0.06688703662 -0.2842962205 -8.243779825e-23)
(-0.007082984806 -0.1169828945 0)
(-0.0009102208459 0.06538954487 -1.910947175e-23)
(-0.0116814017 0.1502529355 -1.326633322e-21)
(-0.02390067031 0.2000254478 1.093919774e-21)
(-0.03603156595 0.224376252 6.733207001e-22)
(-0.04659690664 0.2316148553 6.013015125e-22)
(-0.05579905794 0.2272019495 6.642034731e-22)
(-0.06414514806 0.2141499841 -4.45718192e-23)
(-0.07231158777 0.1936335879 -3.460282372e-22)
(-0.08100823163 0.1655986346 2.151514665e-22)
(-0.09091208328 0.1292770338 0)
(-0.1025956311 0.08354555864 0)
(-0.1164026994 0.02722081591 2.654776367e-22)
(-0.1321977432 -0.04059576948 8.196347624e-23)
(-0.1489607963 -0.1199867007 -2.820303712e-22)
(-0.1641590182 -0.2089027808 -5.409927067e-23)
(-0.1728116232 -0.3006705281 1.302314146e-22)
(-0.1670470762 -0.3793021152 -3.399034396e-22)
(-0.1365371322 -0.4136133322 -1.606134458e-23)
(-0.08018419173 -0.3538043097 8.232513593e-23)
(-0.01050752527 -0.1593993556 -6.034029198e-22)
(-0.002261142214 0.07348134424 0)
(-0.01581003587 0.1626302784 2.145373101e-21)
(-0.02666487888 0.2117579404 0)
(-0.03424605553 0.2333571452 -1.351499854e-21)
(-0.03762409743 0.2377397973 6.185997704e-23)
(-0.038033219 0.2312238921 -6.191294676e-22)
(-0.03672376054 0.217167036 -4.75504427e-22)
(-0.03493484248 0.1968811625 8.298914171e-22)
(-0.0338349361 0.1703322256 -1.885124203e-22)
(-0.03454600975 0.1367293109 0)
(-0.03816254422 0.09481113297 0)
(-0.04569526797 0.04306196928 2.411627014e-23)
(-0.05795102231 -0.02011643262 -6.00595652e-22)
(-0.0751855752 -0.0961849567 -4.308690364e-22)
(-0.0964867004 -0.1855347748 4.637295751e-22)
(-0.1183750374 -0.2853363537 -6.487134577e-22)
(-0.1332928094 -0.3838172985 9.113280168e-23)
(-0.1265476434 -0.4504132973 2.950198027e-23)
(-0.0889958766 -0.4198314002 5.66102941e-22)
(-0.01526942485 -0.2111596399 6.022658417e-22)
(-0.00518145267 0.08597668665 0)
(-0.02526214445 0.1766149404 1.465739533e-22)
(-0.03484940979 0.2205729099 -4.91626181e-23)
(-0.03642471782 0.2354576199 7.641377041e-22)
(-0.03021794995 0.2343120425 -7.003847495e-22)
(-0.01920604156 0.2241355729 4.745413425e-23)
(-0.005660140003 0.2083345362 -1.018539623e-22)
(0.008521520983 0.188114428 -3.388997967e-22)
(0.02174922246 0.163390009 2.062376758e-22)
(0.03257877508 0.1333308573 0)
(0.03953740511 0.09665342189 0)
(0.04112583227 0.05175686134 -2.902146826e-22)
(0.0357437558 -0.003237766207 0)
(0.02194448679 -0.07056631971 -5.511704088e-22)
(-0.00129784583 -0.1525579225 -1.489687661e-23)
(-0.03313247436 -0.2505811195 2.559415526e-23)
(-0.06911454664 -0.3599207847 2.202379523e-22)
(-0.09229279751 -0.457529421 4.790819808e-24)
(-0.08718681 -0.4697983414 -5.79005686e-22)
(-0.02103188922 -0.2698877 0)
(-0.01111660812 0.10859715 0)
(-0.04249444566 0.1947084703 -8.847080095e-22)
(-0.04796871963 0.2258056829 -5.410464624e-22)
(-0.03921774945 0.228194805 4.543326469e-22)
(-0.01880927248 0.2182127443 -1.710597204e-24)
(0.007626098302 0.2028039165 -4.560345555e-23)
(0.03663665149 0.1847484428 5.695529571e-22)
(0.06578375218 0.1647039745 -2.766324002e-23)
(0.09322418609 0.1423114688 -2.06932627e-22)
(0.1173432141 0.1166321173 3.141643162e-23)
(0.1365028458 0.08642082146 -3.42538061e-23)
(0.1489271774 0.05018915171 -3.690155881e-23)
(0.1524921686 0.006172877724 3.205321198e-22)
(0.1449058706 -0.04794813222 6.11908762e-22)
(0.1234893861 -0.1152940635 -5.100837577e-22)
(0.08631341616 -0.2004107594 -1.616096267e-22)
(0.03197173057 -0.3067738576 1.531131991e-22)
(-0.02363492943 -0.4239768743 7.293668796e-23)
(-0.06492970232 -0.4871534978 1.913267963e-21)
(-0.02510048402 -0.3291483866 2.9549649e-21)
(-0.02004660478 0.1460745542 -4.389855129e-23)
(-0.06416656043 0.2112944383 4.417025747e-23)
(-0.05071031941 0.2177239741 1.000105943e-21)
(-0.01935597722 0.2014578002 -8.253266833e-24)
(0.02412219688 0.1808954896 0)
(0.07151191406 0.1606816098 4.363093784e-23)
(0.1190358363 0.1416401944 -2.273462988e-22)
(0.1644389641 0.1233123332 -9.026306899e-23)
(0.2061861385 0.1048100389 3.680033014e-23)
(0.2429261612 0.08507371967 -1.701345464e-23)
(0.2731851246 0.06296710508 3.429433282e-23)
(0.2952218492 0.0372707738 -6.591870059e-23)
(0.3066694663 0.006543838278 -9.302823319e-23)
(0.3049505318 -0.0308692607 1.516963912e-22)
(0.2863746746 -0.07785591385 0)
(0.2470417142 -0.1399252096 1.505668957e-22)
(0.1810800048 -0.2266277874 2.559943631e-22)
(0.09603537434 -0.3443868042 0)
(-0.006702283911 -0.4552181516 -3.67558658e-21)
(-0.01922484627 -0.3777510998 -2.892594673e-21)
(-0.02591894985 0.2276847886 -9.514002133e-22)
(-0.03998235418 0.2238229666 -1.388908833e-22)
(0.03656037177 0.1810573696 -2.335382106e-22)
(0.1090452818 0.1451022693 -1.193612982e-22)
(0.1817087988 0.1172393091 -4.295602087e-23)
(0.2489931296 0.09627352998 9.78207266e-23)
(0.3100128322 0.08002037123 -1.408377308e-22)
(0.3645965646 0.06656498874 1.296944651e-22)
(0.4125990553 0.05449062757 -8.618492334e-23)
(0.4535988382 0.0427098088 1.132150084e-25)
(0.4867633084 0.03032554158 1.527528639e-23)
(0.5107234536 0.01653271879 7.996220945e-23)
(0.5236418655 0.0005404453241 -1.810964256e-22)
(0.5231661817 -0.01862991264 -1.617065172e-22)
(0.5052223398 -0.04286171058 -4.262818209e-23)
(0.4658644733 -0.07633038303 0)
(0.3952645555 -0.1286083386 -1.846328871e-22)
(0.2916032675 -0.2208466411 8.148600492e-22)
(0.1197431851 -0.3525015338 1.631577041e-21)
(0.02670488437 -0.3775494523 2.172643068e-21)
(0.2142900325 0.1347452944 9.864766069e-22)
(0.2776329418 0.09870577073 0)
(0.4316612611 0.05810449255 -2.594206568e-22)
(0.5304757773 0.03846253114 -1.741595313e-22)
(0.6016950337 0.02623372572 0)
(0.6571154113 0.0183186459 -6.008460596e-23)
(0.7015140997 0.01313550446 6.376992503e-23)
(0.7375949108 0.009541851281 -1.799790399e-23)
(0.7669264234 0.006804500896 2.88539745e-23)
(0.7902002799 0.004465092723 2.314594598e-23)
(0.8074461481 0.002221915321 0)
(0.8182545503 -0.0001493277803 -2.872654346e-23)
(0.8216445771 -0.002723064329 0)
(0.8162362952 -0.005712078531 2.737946043e-23)
(0.7991319903 -0.009611036737 1.421764841e-23)
(0.7679985074 -0.01500245994 -5.799231962e-23)
(0.7106559069 -0.02502535555 -2.535571049e-22)
(0.6235186098 -0.0420430365 -6.917974256e-22)
(0.4230090799 -0.09182986921 0)
(0.2705674128 -0.1524022695 -2.11947125e-21)
)
;

boundaryField
{
    movingWall
    {
        type            calculated;
        value           uniform (1 0 0);
    }
    fixedWalls
    {
        type            calculated;
        value           uniform (0 0 0);
    }
    frontAndBack
    {
        type            empty;
    }
}


// ************************************************************************* //
