/*--------------------------------*- C++ -*----------------------------------*\
  =========                 |
  \\      /  F ield         | OpenFOAM: The Open Source CFD Toolbox
   \\    /   O peration     | Website:  https://openfoam.org
    \\  /    A nd           | Version:  13
     \\/     M anipulation  |
\*---------------------------------------------------------------------------*/
FoamFile
{
    format      ascii;
    class       vectorField;
    location    "20";
    object      U_all;
}
// * * * * * * * * * * * * * * * * * * * * * * * * * * * * * * * * * * * * * //


400
(
(1.090335261e-05 -3.777837096e-05 0)
(-0.0006660247579 0.0004129457998 -1.546911158e-23)
(-0.002184668399 0.0009200683959 0)
(-0.004046348476 0.001312270661 0)
(-0.00596957921 0.001534450811 6.83036928e-25)
(-0.007759773958 0.001569217106 4.15093957e-24)
(-0.009280976664 0.001423001585 -7.32148133e-24)
(-0.01043202757 0.001119299348 7.585939794e-24)
(-0.01113280388 0.00069584215 -2.100096541e-25)
(-0.01132326453 0.0002030339755 -4.002036121e-24)
(-0.01096834335 -0.0003000955472 5.812047143e-24)
(-0.01006953683 -0.0007472473161 -5.93676045e-23)
(-0.008677879231 -0.001075234781 -6.560806046e-23)
(-0.006901704483 -0.001232741033 -7.793292135e-23)
(-0.004910395642 -0.001192437145 4.57980287e-24)
(-0.002927535682 -0.0009618744521 -4.14502962e-24)
(-0.001206003032 -0.0005913323757 -2.00395696e-22)
(-1.983339046e-05 -0.0001701254267 0)
(0.0005176058379 0.0001717902387 1.534751004e-25)
(0.0002226108677 0.0003057843866 -2.883618126e-24)
(-0.0002632832761 0.0008287290342 1.384885416e-25)
(-0.00270219296 0.003382501934 1.556644334e-23)
(-0.006904243994 0.005602096096 1.548654162e-25)
(-0.01194697965 0.007005136378 -8.472796734e-25)
(-0.01712738226 0.007550489294 1.15859491e-24)
(-0.02196563157 0.007291120952 1.302050202e-23)
(-0.02609944164 0.00631938254 1.437544795e-24)
(-0.0292533348 0.004752518864 -7.336305041e-24)
(-0.03121411074 0.002736473934 1.018207725e-23)
(-0.03182978521 0.0004527495173 4.518509481e-24)
(-0.03101645553 -0.001882835252 -6.328080875e-24)
(-0.02878365136 -0.004020989097 2.95779344e-24)
(-0.02526391628 -0.00570591139 3.899438075e-23)
(-0.02072671676 -0.00670495113 -1.957979583e-24)
(-0.01558656267 -0.006852055471 3.761358478e-24)
(-0.01038391102 -0.006096072353 -9.767407784e-23)
(-0.005730341479 -0.004545661109 9.665294895e-23)
(-0.002234029028 -0.00250770699 -4.011147614e-25)
(-0.0001823867073 -0.0005031739418 4.112309402e-25)
(8.334466465e-05 0.0006092880726 0)
(-0.0004186067221 0.002933878824 -2.9109698e-25)
(-0.004645605466 0.008800043706 1.70357582e-23)
(-0.01136640202 0.01323428763 -8.250065058e-24)
(-0.01931791782 0.0157847353 -2.065999956e-25)
(-0.02746097611 0.01652252479 2.02962921e-25)
(-0.03510132298 0.01563765739 8.224751432e-27)
(-0.04169439789 0.01335465297 -1.268371404e-24)
(-0.04681502325 0.009916407555 -4.58387891e-25)
(-0.05012861265 0.005601330954 -1.06617051e-23)
(-0.05139148403 0.0007456436644 0)
(-0.0504585539 -0.004238477078 0)
(-0.04732006197 -0.008882236947 2.675226268e-23)
(-0.04214528677 -0.01267581953 2.817399895e-23)
(-0.03530373894 -0.0151298846 -1.649625867e-24)
(-0.0273826937 -0.01585632621 4.858509785e-23)
(-0.01916581018 -0.0146690865 9.444936799e-23)
(-0.01155901405 -0.01169113036 4.005785065e-23)
(-0.005464980113 -0.007450112051 4.243204931e-25)
(-0.00145127504 -0.002936775435 1.020186653e-25)
(-9.07288356e-05 0.0002249462613 0)
(-0.0005021698739 0.006042565553 -4.247685825e-23)
(-0.006399429126 0.01636293701 -1.693778855e-23)
(-0.01552713605 0.02354804688 8.176823984e-24)
(-0.02626602379 0.02742867927 0)
(-0.03726928304 0.02830809974 0)
(-0.04766770692 0.02657625872 0)
(-0.0567704381 0.02262231992 -4.643449958e-26)
(-0.06402531468 0.01683058979 -2.100991541e-24)
(-0.06898126788 0.009620504734 0)
(-0.07127910309 0.001493271862 1.646316924e-24)
(-0.07068101552 -0.006930757618 2.809857448e-25)
(-0.06710562486 -0.01492158707 -2.817724988e-25)
(-0.06067794236 -0.02165682286 0)
(-0.0517906284 -0.02630496666 4.145633667e-23)
(-0.04113747553 -0.02815030023 -4.693878155e-23)
(-0.02971147635 -0.02676521354 -2.77732762e-23)
(-0.01873252605 -0.02220958402 -3.991442644e-23)
(-0.00948600638 -0.01521658874 7.792199803e-25)
(-0.002976431173 -0.007298124766 9.75132747e-23)
(-0.0002318239416 -0.0008670681612 0)
(-0.0005313028312 0.01009012163 4.268347436e-23)
(-0.007979499585 0.02593951262 4.781084104e-25)
(-0.01938716758 0.0364112254 -4.671885739e-25)
(-0.03280778027 0.04183549526 0)
(-0.0466246768 0.04287548779 7.769004776e-25)
(-0.05982462797 0.04018373703 -7.661284751e-25)
(-0.07160089187 0.03433432124 3.665090962e-23)
(-0.08129248885 0.02584852216 1.840286331e-23)
(-0.08832946994 0.01527041794 6.212170733e-24)
(-0.09221817694 0.003249204433 -1.648234906e-24)
(-0.09256877938 -0.009399543705 0)
(-0.08914337528 -0.02166217025 4.389033425e-25)
(-0.0819315959 -0.03235184566 1.016077694e-23)
(-0.07124549493 -0.04019555932 -4.362500488e-23)
(-0.05780214746 -0.04400402477 1.941852512e-24)
(-0.04277313882 -0.04293415672 4.248808169e-23)
(-0.02774669368 -0.03682307954 -3.893353086e-25)
(-0.0145467406 -0.0265212844 0)
(-0.004858253269 -0.01408270717 5.43317879e-23)
(-0.0003640167844 -0.002847403726 -2.560426261e-22)
(-0.0005269458571 0.01499192055 9.837155907e-23)
(-0.009373416383 0.03737201122 -4.905473196e-25)
(-0.02287107775 0.05167756213 0)
(-0.03881263759 0.05891463575 0)
(-0.05536188932 0.06022929851 -8.725352522e-23)
(-0.07139795484 0.0565959121 -8.490806604e-23)
(-0.08603074465 0.04878389093 -4.059589363e-23)
(-0.09851147704 0.03742863867 -1.500060758e-23)
(-0.1081530969 0.02315602069 -5.345147638e-24)
(-0.114302578 0.006713320425 -8.155725317e-24)
(-0.1163638308 -0.01092228497 6.579460569e-24)
(-0.1138555329 -0.02847286635 8.785008554e-24)
(-0.1065144135 -0.04434949592 -1.89041713e-23)
(-0.09443880433 -0.05673000553 4.428886836e-24)
(-0.07824519483 -0.06375962427 0)
(-0.05921182294 -0.06391398366 -1.59002502e-23)
(-0.0393287499 -0.0565217267 -1.854921774e-26)
(-0.02113605327 -0.04234755247 0)
(-0.00731669797 -0.02397769944 -1.516364341e-22)
(-0.0005214118775 -0.005925173131 6.046468516e-22)
(-0.0004988855434 0.02063580504 -9.770138776e-23)
(-0.01052503551 0.05043043997 2.83073183e-22)
(-0.02581877131 0.06909317078 1.526143173e-22)
(-0.04400337328 0.07845770698 3.616963491e-24)
(-0.06308229085 0.08026105712 -7.31570292e-23)
(-0.08187256323 0.07585104919 9.034662664e-23)
(-0.09944086371 0.06619417547 -3.586725664e-24)
(-0.114982019 0.05200242275 -1.726754926e-24)
(-0.12770872 0.03391810131 2.52041609e-24)
(-0.1368031007 0.01270605685 7.364676413e-24)
(-0.1414274526 -0.01057536462 -6.480295767e-24)
(-0.1407832574 -0.03444016567 -9.742188828e-24)
(-0.134236483 -0.05690171065 -3.259828226e-23)
(-0.1215116594 -0.07550347548 -3.630899186e-23)
(-0.1029397565 -0.08751195991 5.583193917e-25)
(-0.07974281502 -0.09036350144 0)
(-0.05425279513 -0.08242152408 0)
(-0.02986389965 -0.06396098642 -2.89873661e-24)
(-0.01066005087 -0.03797960263 2.963023331e-24)
(-0.0007348261338 -0.01049927184 1.027378594e-22)
(-0.0004478352959 0.02686014246 0)
(-0.01134529457 0.06477824505 2.001140642e-22)
(-0.02800626225 0.08825736472 8.958346777e-23)
(-0.04798212095 0.1000813739 0)
(-0.06918287643 0.1026670795 1.568865916e-22)
(-0.09041449867 0.09778042914 0)
(-0.1107488272 0.08658353072 -1.427282284e-22)
(-0.1293711262 0.0698215935 6.509634618e-24)
(-0.145436302 0.04807492578 0)
(-0.1579930316 0.02202086622 0)
(-0.1659712369 -0.007320900959 -1.372345397e-24)
(-0.1682263773 -0.03836570989 -9.295923429e-25)
(-0.1636682785 -0.06880963712 1.489233476e-22)
(-0.1514865431 -0.09554751154 -4.702000484e-23)
(-0.1314842165 -0.1147924014 -2.552979773e-24)
(-0.1045365577 -0.1225340877 1.527203276e-24)
(-0.07307735445 -0.11552044 -1.551293806e-24)
(-0.04134094828 -0.09280801622 0)
(-0.01524875969 -0.05739470217 3.199396411e-24)
(-0.001043979881 -0.01714385165 -1.011736897e-21)
(-0.0003745281712 0.03344869526 0)
(-0.01174715942 0.07995538353 -1.127750746e-22)
(-0.02919955287 0.1085945115 -6.18845173e-22)
(-0.05030438026 0.1231751296 -3.753553808e-22)
(-0.07294448194 0.1268632847 0)
(-0.09596574949 0.1218851205 4.117000485e-22)
(-0.1184991579 0.1096032939 1.259947617e-22)
(-0.1397831233 0.09076160714 -5.577207055e-24)
(-0.1589883761 0.06580473982 5.549602892e-24)
(-0.1751111011 0.03521144058 0)
(-0.1869207206 -0.000182807308 2.909618675e-23)
(-0.1929826026 -0.038873371 4.690311023e-24)
(-0.1917478304 -0.0784061271 -1.075209192e-22)
(-0.181756707 -0.1151473779 7.989322819e-23)
(-0.1620298027 -0.1442171921 -2.416209549e-22)
(-0.1326836638 -0.1598120346 0)
(-0.09576221211 -0.1562725794 0)
(-0.05600619492 -0.1302679233 0)
(-0.02147446063 -0.08379313986 0)
(-0.001499995593 -0.02664982116 5.566033285e-22)
(-0.00028760732 0.04014516516 0)
(-0.01169216146 0.09539929096 -3.491557551e-22)
(-0.02924007781 0.1293587275 8.929116074e-22)
(-0.0506014421 0.1468772484 3.615486349e-22)
(-0.07368888493 0.1519242644 0)
(-0.09743596416 0.1472317672 -3.860259763e-22)
(-0.1210884706 0.134384839 -3.172457939e-23)
(-0.1440117964 0.1141165372 3.331070896e-22)
(-0.1654922722 0.08668969661 1.768346258e-22)
(-0.1846021183 0.05229331229 -4.057514691e-23)
(-0.2001096665 0.01143103903 1.656249854e-23)
(-0.2104394798 -0.03468973952 -8.258221754e-24)
(-0.2136984668 -0.08373207592 3.369352734e-22)
(-0.2077998232 -0.1318349388 0)
(-0.1908033389 -0.1732301903 2.417376859e-22)
(-0.1616152449 -0.2002123487 5.76418038e-24)
(-0.1211515036 -0.2039678168 -5.850141334e-24)
(-0.07384008541 -0.1771754761 1.545110544e-22)
(-0.02971347455 -0.118840685 -5.425604669e-24)
(-0.002179104832 -0.04004632528 0)
(-0.0002120874034 0.04670045362 0)
(-0.01125033543 0.1105118512 0)
(-0.02815589916 0.1496850578 -5.020742294e-22)
(-0.04874305058 0.1700969838 -1.880241218e-23)
(-0.07099744025 0.1765731142 2.037403251e-23)
(-0.09398953098 0.1724070471 -2.013347265e-23)
(-0.1171373152 0.1594517394 -2.315598354e-23)
(-0.1400112629 0.1384572594 -3.02796078e-22)
(-0.162126141 0.1095056207 6.696913264e-23)
(-0.1827894106 0.07245396598 4.510212306e-23)
(-0.2009773376 0.02736299217 -4.574630492e-23)
(-0.2152208158 -0.0250630301 0)
(-0.2235495087 -0.08295096066 -7.82907349e-23)
(-0.2234554542 -0.1426861934 0)
(-0.2120588684 -0.1981373569 -3.737030035e-22)
(-0.1867334154 -0.2400297977 5.240506034e-22)
(-0.1464340019 -0.2560304778 0)
(-0.09393790621 -0.2330801191 -1.490755789e-22)
(-0.04021591308 -0.1639331759 1.934208882e-22)
(-0.003200632381 -0.05860058934 -3.408208035e-22)
(-0.0002020355716 0.05296061136 0)
(-0.0106748112 0.1247802805 9.179813576e-22)
(-0.02628842658 0.1686927843 -2.439822698e-23)
(-0.0450162642 0.1915912625 9.19012729e-22)
(-0.064951994 0.199240007 -2.511109351e-23)
(-0.08537303442 0.1955655301 2.837563238e-23)
(-0.1059381853 0.1827543288 -2.81166099e-23)
(-0.1265011622 0.1616363432 -1.660113378e-23)
(-0.146909732 0.1321670137 -5.257709909e-22)
(-0.1668571064 0.09389942297 -8.902298036e-24)
(-0.1857424235 0.04641951666 9.655597119e-24)
(-0.2024904284 -0.0102150666 3.311742112e-22)
(-0.2154267239 -0.07496805433 -5.818034015e-22)
(-0.2220298779 -0.1449951699 0)
(-0.2188086614 -0.2146353633 8.882477873e-22)
(-0.2016272137 -0.2739575471 -4.93670654e-22)
(-0.1668619031 -0.3075359831 -1.570895175e-23)
(-0.1140182602 -0.2953393914 0)
(-0.05288182222 -0.2195491458 -1.886898863e-22)
(-0.004748742946 -0.08376064225 3.357323551e-22)
(-0.0003647860429 0.05900968395 1.550507861e-23)
(-0.01049970872 0.1379543777 -8.761281467e-22)
(-0.02442205547 0.1856341642 -1.156721481e-21)
(-0.04027928327 0.2100874615 -8.625974783e-22)
(-0.05632269686 0.2181858178 0)
(-0.07216691713 0.2145770346 3.512448669e-23)
(-0.08781324971 0.20184768 -7.291997042e-23)
(-0.1034798214 0.1809812616 5.865531377e-23)
(-0.1194242094 0.1518928363 3.020035685e-22)
(-0.1358208289 0.113919614 -1.127749118e-23)
(-0.1526370669 0.06622844965 0)
(-0.1694810009 0.0081988595 -3.602455923e-22)
(-0.1853035508 -0.06013271098 7.513091493e-22)
(-0.1980693879 -0.1372435805 8.829090024e-22)
(-0.2043744766 -0.2188918768 -5.294177763e-22)
(-0.1991115628 -0.2959340837 5.160698303e-22)
(-0.1760678694 -0.3513678728 1.077106195e-23)
(-0.1300909308 -0.3583764235 -1.094403145e-23)
(-0.06688704066 -0.2842963527 -8.243730579e-23)
(-0.00708298641 -0.1169829511 0)
(-0.0009102183586 0.06538959074 -1.910948393e-23)
(-0.0116813788 0.1502530575 -1.326634069e-21)
(-0.02390062038 0.2000256201 1.093919824e-21)
(-0.03603148898 0.224376445 6.733206768e-22)
(-0.04659680575 0.231615042 6.013015764e-22)
(-0.05579893729 0.2272021088 6.642035743e-22)
(-0.06414501076 0.2141501018 -4.45718217e-23)
(-0.0723114365 0.193633656 -3.460282726e-22)
(-0.08100806941 0.1655986533 2.151515036e-22)
(-0.09091191358 0.1292770079 0)
(-0.1025954578 0.08354549707 0)
(-0.1164025272 0.02722072905 2.65477621e-22)
(-0.1321975776 -0.0405958715 8.196337619e-23)
(-0.1489606437 -0.1199868107 -2.820305905e-22)
(-0.1641588864 -0.2089028958 -5.409926679e-23)
(-0.1728115203 -0.3006706487 1.302311376e-22)
(-0.1670470077 -0.3793022444 -3.399038846e-22)
(-0.1365370984 -0.4136134655 -1.60608756e-23)
(-0.08018418465 -0.3538044279 8.23246442e-23)
(-0.01050752614 -0.1593994117 -6.034026495e-22)
(-0.002261139295 0.07348137633 0)
(-0.01581000805 0.1626303719 2.145374244e-21)
(-0.02666481766 0.2117580798 0)
(-0.03424595961 0.233357306 -1.351499899e-21)
(-0.03762396974 0.237739955 6.185995984e-23)
(-0.03803306525 0.2312240267 -6.191295639e-22)
(-0.03672358727 0.2171671346 -4.755044848e-22)
(-0.03493465506 0.1968812164 8.298915102e-22)
(-0.03383473953 0.170332236 -1.885124548e-22)
(-0.03454580974 0.1367292823 0)
(-0.0381623455 0.09481107398 0)
(-0.04569507496 0.0430618904 2.41163257e-23)
(-0.05795083892 -0.02011652115 -6.005954968e-22)
(-0.07518540577 -0.0961850461 -4.308688649e-22)
(-0.09648655011 -0.1855348617 4.63729283e-22)
(-0.1183749134 -0.2853364388 -6.487136621e-22)
(-0.1332927178 -0.3838173876 9.113327174e-23)
(-0.1265475895 -0.4504133911 2.950147989e-23)
(-0.08899585811 -0.4198314925 5.661026217e-22)
(-0.01526942405 -0.2111596899 6.022655717e-22)
(-0.005181450026 0.08597670399 0)
(-0.02526211534 0.1766150013 1.465737353e-22)
(-0.03484934414 0.2205730103 -4.916263644e-23)
(-0.03642461368 0.2354577421 7.641377924e-22)
(-0.03021780971 0.2343121662 -7.003847977e-22)
(-0.01920587123 0.2241356801 4.745413528e-23)
(-0.005659949787 0.2083346146 -1.018539245e-22)
(0.008521724053 0.1881144709 -3.388998341e-22)
(0.02174943237 0.1633900157 2.062376996e-22)
(0.03257898288 0.1333308314 0)
(0.03953760551 0.09665337104 0)
(0.04112602098 0.05175679495 -2.902147225e-22)
(0.03574393121 -0.003237838094 0)
(0.02194464648 -0.07056639013 -5.511703837e-22)
(-0.001297704176 -0.1525579864 -1.489683211e-23)
(-0.03313235485 -0.2505811764 2.559413386e-23)
(-0.06911445125 -0.3599208397 2.202379155e-22)
(-0.09229273512 -0.4575294746 4.79082367e-24)
(-0.0871867848 -0.4697984013 -5.790053349e-22)
(-0.02103188674 -0.2698877383 0)
(-0.011116607 0.1085971538 0)
(-0.04249442166 0.1947084996 -8.847081631e-22)
(-0.04796866128 0.2258057432 -5.410466271e-22)
(-0.03921765414 0.2281948867 4.543327001e-22)
(-0.01880914127 0.2182128317 -1.710602827e-24)
(0.007626259564 0.2028039959 -4.560346235e-23)
(0.03663683405 0.1847485024 5.69552961e-22)
(0.06578394726 0.1647040099 -2.766323685e-23)
(0.09322438545 0.1423114762 -2.069326616e-22)
(0.1173434092 0.1166320992 3.141643112e-23)
(0.1365030305 0.08642078314 -3.42538105e-23)
(0.1489273473 0.05018910062 -3.690157741e-23)
(0.1524923201 0.006172821736 3.205322407e-22)
(0.1449060024 -0.04794818536 6.119087333e-22)
(0.1234894999 -0.1152941084 -5.100835062e-22)
(0.08631351034 -0.2004107945 -1.616095348e-22)
(0.03197181276 -0.3067738844 1.531133196e-22)
(-0.02363487049 -0.4239769016 7.293668264e-23)
(-0.06492967808 -0.4871535291 1.913267871e-21)
(-0.02510048075 -0.3291484107 2.954964643e-21)
(-0.02004660647 0.1460745493 -4.389855795e-23)
(-0.06416654946 0.2112944446 4.417026393e-23)
(-0.05071028358 0.2177240005 1.000106056e-21)
(-0.01935591291 0.2014578448 -8.253351252e-24)
(0.02412229229 0.1808955425 0)
(0.07151203785 0.1606816614 4.363094672e-23)
(0.1190359815 0.1416402361 -2.273463102e-22)
(0.1644391229 0.12331236 -9.026308852e-23)
(0.2061863026 0.1048100479 3.680033416e-23)
(0.2429263226 0.08507371137 -1.70134566e-23)
(0.2731852764 0.06296708243 3.429433725e-23)
(0.2952219855 0.03727074161 -6.591870222e-23)
(0.3066695856 0.006543802299 -9.302828281e-23)
(0.3049506324 -0.03086929503 1.516964534e-22)
(0.2863747562 -0.07785594148 0)
(0.2470417792 -0.1399252285 1.505668078e-22)
(0.1810800571 -0.2266277951 2.559942412e-22)
(0.09603541311 -0.3443868141 0)
(-0.006702263979 -0.4552181625 -3.675586431e-21)
(-0.01922484303 -0.37775111 -2.892594429e-21)
(-0.02591895367 0.227684783 -9.514005495e-22)
(-0.03998235895 0.2238229639 -1.388908733e-22)
(0.03656037742 0.1810573757 -2.335382074e-22)
(0.1090453042 0.1451022855 -1.193613341e-22)
(0.181708843 0.1172393318 -4.295601078e-23)
(0.2489931969 0.096273554 9.782072871e-23)
(0.3100129197 0.08002039214 -1.408377848e-22)
(0.3645966667 0.06656500348 1.296944976e-22)
(0.4125991653 0.05449063419 -8.618494412e-23)
(0.4535989488 0.04270980694 1.132102134e-25)
(0.4867634129 0.03032553231 1.52752873e-23)
(0.5107235467 0.0165327041 7.996220892e-23)
(0.523641943 0.0005404292073 -1.810964737e-22)
(0.5231662412 -0.01862992865 -1.617065843e-22)
(0.5052223831 -0.04286172297 -4.262822353e-23)
(0.4658645036 -0.0763303904 0)
(0.3952645777 -0.1286083405 -1.846329203e-22)
(0.291603284 -0.220846641 8.148600165e-22)
(0.119743195 -0.3525015336 1.631576998e-21)
(0.02670488678 -0.377549453 2.172643003e-21)
(0.2142900293 0.134745293 9.864769355e-22)
(0.2776329329 0.09870576948 0)
(0.4316612521 0.0581044921 -2.594206319e-22)
(0.5304757736 0.03846253203 -1.741594831e-22)
(0.6016950401 0.02623372776 0)
(0.6571154302 0.01831864837 -6.00846008e-23)
(0.7015141302 0.01313550679 6.376995676e-23)
(0.7375949497 0.009541852995 -1.799793095e-23)
(0.7669264666 0.006804501533 2.885400523e-23)
(0.7902003232 0.004465092041 2.31459654e-23)
(0.8074461874 0.002221913434 0)
(0.8182545828 -0.0001493306569 -2.872654287e-23)
(0.821644601 -0.002723067667 0)
(0.8162363103 -0.00571208126 2.737945649e-23)
(0.7991319976 -0.009611038152 1.421769235e-23)
(0.7679985087 -0.01500245992 -5.7992299e-23)
(0.7106559057 -0.02502535463 -2.535570947e-22)
(0.6235186089 -0.04204303561 -6.917973917e-22)
(0.4230090799 -0.09182986833 0)
(0.2705674131 -0.152402269 -2.119471186e-21)
)


// ************************************************************************* //
