/*--------------------------------*- C++ -*----------------------------------*\
  =========                 |
  \\      /  F ield         | OpenFOAM: The Open Source CFD Toolbox
   \\    /   O peration     | Website:  https://openfoam.org
    \\  /    A nd           | Version:  13
     \\/     M anipulation  |
\*---------------------------------------------------------------------------*/
FoamFile
{
    format      ascii;
    class       scalarField;
    location    "10.32";
    object      p_all;
}
// * * * * * * * * * * * * * * * * * * * * * * * * * * * * * * * * * * * * * //


400
(
5.159316251e-08
-0.0005282708173
-0.0008532866172
-0.0009653520424
-0.000873776678
-0.0006106180921
-0.0002129096166
0.0002839738515
0.0008442570283
0.001428426427
0.001991883141
0.002483124681
0.002847869604
0.003033777957
0.002999344285
0.002725562492
0.002230348426
0.001569241072
0.0009292950489
0.0003461987057
0.0005664940532
5.681323039e-06
-0.0003405565034
-0.0004671381614
-0.0004217955228
-0.0002309902411
7.599529862e-05
0.0004699995569
0.0009198862218
0.001388989543
0.001838737554
0.00221860144
0.002479178601
0.002573775682
0.002468408931
0.002153176756
0.00165255702
0.001028988625
0.000449531502
-0.0002019990149
0.0009120715586
0.0002907429791
-9.153709619e-05
-0.000221493925
-0.000198767454
-5.321355666e-05
0.0001908716876
0.0005117706175
0.0008856312644
0.001282061128
0.00166487074
0.001985811668
0.002194555918
0.002242992301
0.002095975491
0.00174267237
0.001205058941
0.0005373089012
-0.0001430494056
-0.0009631601778
0.0009242969771
0.0002317414512
-0.0001975004838
-0.0003320734074
-0.0003220658526
-0.0002039770627
8.146494564e-07
0.0002785970314
0.0006147830537
0.0009877185733
0.001360137715
0.001686592343
0.00190844457
0.001966402062
0.001812074058
0.001421560464
0.0008051993949
7.836318125e-06
-0.0008848899996
-0.002008818298
0.000433015996
-0.0003062237649
-0.0007629072755
-0.0008950399986
-0.0008929904128
-0.0007979145083
-0.0006262466126
-0.0003805148028
-6.23047008e-05
0.0003176640301
0.0007294378807
0.001125159888
0.001435368908
0.001581007496
0.001487079429
0.001100933886
0.0004080258533
-0.0005607947958
-0.001743054988
-0.003238192189
-0.0007076587057
-0.001463692916
-0.00193026981
-0.002059151871
-0.002073394387
-0.002015647195
-0.001893524157
-0.00169320429
-0.001396615396
-0.0009957273158
-0.0005068137028
2.606203405e-05
0.0005220909639
0.0008742669408
0.0009636297352
0.0006845104163
-2.731013607e-05
-0.001170050017
-0.002708566032
-0.004675021821
-0.002631249273
-0.003372210578
-0.003841812659
-0.003981193966
-0.004042301742
-0.004066226769
-0.004047133053
-0.003948012052
-0.003721262799
-0.003327015296
-0.002753214081
-0.00202537043
-0.001227969591
-0.0004994634876
-2.314321189e-05
5.363671626e-06
-0.000572653694
-0.001822013045
-0.003760096895
-0.006309101735
-0.005446528078
-0.006146782101
-0.006623119952
-0.006805714628
-0.006972558421
-0.007161267358
-0.007348657453
-0.00746725531
-0.007427573531
-0.007139351792
-0.006537868271
-0.005597489395
-0.004387819034
-0.003068080346
-0.001902003783
-0.001224014411
-0.001361649039
-0.002523653999
-0.004846495601
-0.008091193931
-0.009226405751
-0.009865714752
-0.01036096914
-0.0106352063
-0.01099168484
-0.01146558287
-0.01201521506
-0.01253720514
-0.01288773555
-0.01290269471
-0.01242312792
-0.01135335765
-0.009677293563
-0.007545088869
-0.005297524968
-0.003456437032
-0.002624251582
-0.003290719208
-0.005855163284
-0.009874221484
-0.01399308001
-0.01455383531
-0.01507999479
-0.01549445271
-0.01613058916
-0.01702729924
-0.01812820329
-0.01929322925
-0.02031531771
-0.02093647921
-0.02087497695
-0.0198796555
-0.01780483932
-0.01471053198
-0.01096557443
-0.007295697256
-0.004694994301
-0.004141740086
-0.006565535838
-0.01132848618
-0.01971173005
-0.02017338177
-0.02072500599
-0.02129745827
-0.02227082319
-0.02370100767
-0.02552681489
-0.02757689131
-0.02957956582
-0.03117000136
-0.03191159898
-0.03134835227
-0.02912335373
-0.02509058214
-0.01953688762
-0.01333122046
-0.007929764898
-0.005047305357
-0.006573035269
-0.01180593405
-0.02630390487
-0.0266313723
-0.02715843526
-0.02782931321
-0.02910919146
-0.03109306563
-0.03373004599
-0.03682754877
-0.04005504869
-0.04294016079
-0.04487824992
-0.04517296051
-0.04319668129
-0.03847340606
-0.03104306944
-0.02174697589
-0.01244369673
-0.005771728573
-0.005158810268
-0.01013099156
-0.03369406431
-0.03380965419
-0.03417713518
-0.0347499786
-0.0361553046
-0.03855849092
-0.04193542294
-0.04608086555
-0.05061206875
-0.05495615998
-0.05834944302
-0.05987707496
-0.05853036705
-0.05349870003
-0.04439461741
-0.03177290236
-0.01764884529
-0.005552666327
-0.001064794217
-0.004312273044
-0.04191354264
-0.04162522981
-0.04155214375
-0.04162604942
-0.04277544099
-0.04527280158
-0.04913035195
-0.05412717688
-0.05982407121
-0.06555123664
-0.07039464188
-0.07321782871
-0.07272771579
-0.06768159555
-0.05719402899
-0.04128977563
-0.02176572364
-0.002669200555
0.007854229849
0.00877939936
-0.0512993911
-0.05010105454
-0.04904775984
-0.04794586428
-0.04824581304
-0.05034772102
-0.05428457821
-0.05979192996
-0.06634655994
-0.07316628663
-0.07918556506
-0.08306263938
-0.08324211324
-0.07808961379
-0.06622645384
-0.04700632687
-0.021685084
0.00589008385
0.02505237791
0.03379717597
-0.06297802995
-0.0595699305
-0.05653023578
-0.05322162922
-0.05189674778
-0.05303120692
-0.05660761993
-0.0622589334
-0.06930685027
-0.07682097649
-0.08355701973
-0.08795913352
-0.08822728866
-0.08233929628
-0.06850890758
-0.04538535873
-0.01359754145
0.02455736951
0.05565817538
0.07743778007
-0.07959421406
-0.07054757476
-0.06366940016
-0.05676238787
-0.05301868085
-0.05272246865
-0.05564832111
-0.06118082972
-0.06843863659
-0.07626999259
-0.08321385006
-0.08747202408
-0.08696882973
-0.07934383516
-0.06235151124
-0.03406404207
0.00538092661
0.05862143817
0.1057495115
0.1479803577
-0.1100444613
-0.08546052762
-0.07130895139
-0.05873082397
-0.05167912255
-0.04955217074
-0.0516386038
-0.05690782245
-0.06415797534
-0.07197096169
-0.07864584568
-0.08213899827
-0.08014458798
-0.06968530287
-0.04821933483
-0.01285841684
0.0380043901
0.1069179899
0.1777564154
0.2562447442
-0.168096696
-0.09962485753
-0.07484093472
-0.05469783848
-0.04450654341
-0.04137646622
-0.04336757616
-0.04888499354
-0.056408937
-0.06431325876
-0.07072998218
-0.0734435883
-0.06973641687
-0.05683761245
-0.0310393667
0.01176893501
0.07534138244
0.1661198172
0.2758691098
0.4374277952
-0.3980960932
-0.1378439572
-0.07483783974
-0.04703622899
-0.03349221455
-0.02988339411
-0.0325172983
-0.03883366883
-0.04701081371
-0.05533199219
-0.06190496088
-0.06451654453
-0.06061970054
-0.04677204502
-0.01873159812
0.02981604767
0.1067362246
0.2331665548
0.419607851
0.7797605001
)


// ************************************************************************* //
