/*--------------------------------*- C++ -*----------------------------------*\
  =========                 |
  \\      /  F ield         | OpenFOAM: The Open Source CFD Toolbox
   \\    /   O peration     | Website:  https://openfoam.org
    \\  /    A nd           | Version:  13
     \\/     M anipulation  |
\*---------------------------------------------------------------------------*/
FoamFile
{
    format      ascii;
    class       volScalarField;
    location    "13";
    object      p;
}
// * * * * * * * * * * * * * * * * * * * * * * * * * * * * * * * * * * * * * //

dimensions      [0 2 -2 0 0 0 0];

internalField   nonuniform List<scalar> 
400
(
1.181325402e-08
-0.0004130982469
-0.0008851905171
-0.001201435091
-0.001262974378
-0.001033197458
-0.0005016214436
0.0003270598087
0.001431241101
0.002764471317
0.004246797337
0.005760954018
0.007158955552
0.008281886658
0.008992588478
0.009214967738
0.0089685184
0.008386611823
0.007712631804
0.007243559988
0.0004152665032
-1.155796332e-05
-0.000417047973
-0.000656928073
-0.0006750504559
-0.0004510357381
2.325236766e-05
0.0007468944376
0.001705412712
0.002862687546
0.004152742062
0.005476055685
0.006704589957
0.00769944625
0.008340010779
0.008558770031
0.008370062103
0.007881008115
0.007281888182
0.006801144533
0.0009056066164
0.0003625258225
-6.822133463e-05
-0.0002888033482
-0.000297471928
-9.84738936e-05
0.0003111361961
0.0009354432934
0.001770633452
0.002794462747
0.00395587866
0.005168725733
0.006314482533
0.007257657873
0.007874427825
0.008088174726
0.007898621564
0.007389933
0.006716968208
0.006088404948
0.001223199273
0.0005204154201
4.174897104e-06
-0.0002491577532
-0.0002846287305
-0.0001313411618
0.0002082318669
0.0007446870985
0.001487744697
0.002431889312
0.003541851346
0.004741671062
0.0059130685
0.006908329021
0.007579876052
0.007820871491
0.007601811353
0.006985102507
0.006119176284
0.005244574198
0.001188155036
0.0003180970746
-0.0003060783368
-0.0006218137396
-0.0007125572606
-0.00062777887
-0.0003721827826
7.459037744e-05
0.0007395594736
0.00163799624
0.002753807416
0.004022206608
0.005321449032
0.006480976746
0.00731130095
0.007652290459
0.007424441729
0.006661578278
0.005525808464
0.00432629432
0.0006569930771
-0.0003723013903
-0.001110196998
-0.001506134676
-0.001677311839
-0.00168920309
-0.00154487017
-0.001210141609
-0.0006356135417
0.0002215159015
0.001372477828
0.002771343749
0.004296955329
0.005751396024
0.006886400674
0.007459398487
0.007306680922
0.006409346159
0.004947982955
0.003336718931
-0.0004962010769
-0.001670350158
-0.002522733715
-0.003014165138
-0.00329438745
-0.003442303753
-0.003456433162
-0.00328498436
-0.002850073171
-0.002071520296
-0.0008966199692
0.0006646366939
0.002506565835
0.004409256799
0.006052439447
0.007074376475
0.007172282776
0.006221290602
0.004400787591
0.002272225062
-0.002382859845
-0.003683995492
-0.004650782656
-0.005254712514
-0.005679954141
-0.006018782143
-0.006264370381
-0.006344948439
-0.006148128503
-0.005544048657
-0.004418013116
-0.00271629788
-0.000498186083
0.002016901963
0.004435228382
0.006236032303
0.006897112602
0.006089288331
0.003926513033
0.001163108355
-0.005097341543
-0.006504093514
-0.00758382328
-0.00831760252
-0.008929339664
-0.009527962844
-0.01010368022
-0.01056524798
-0.01076168953
-0.01050093951
-0.009581461644
-0.007847060504
-0.005260914499
-0.001992930939
0.001514500037
0.004553090627
0.006279420179
0.006000503037
0.003622449058
0.0001226713859
-0.008712699622
-0.01019876303
-0.01138343993
-0.01225597594
-0.01309016125
-0.01401938681
-0.01503740575
-0.01603813861
-0.01683204717
-0.01715571798
-0.01669653073
-0.01514936374
-0.01231676126
-0.008236440237
-0.003330904425
0.001513749939
0.005032183488
0.005943186855
0.00368249965
-0.0005788178945
-0.01327933771
-0.01481018578
-0.01607354622
-0.01706606561
-0.01812961758
-0.01943596107
-0.02099332252
-0.02268973326
-0.0243024391
-0.02549412488
-0.0258235737
-0.02479516596
-0.02197981121
-0.01717189184
-0.01065166006
-0.003400913157
0.00284208772
0.005947129043
0.004467295775
-0.0003932603423
-0.01883421824
-0.02035905519
-0.02163424083
-0.02266716432
-0.0239004027
-0.02556589771
-0.02770047618
-0.03019733931
-0.03280955681
-0.03513082119
-0.03658719509
-0.03647253972
-0.03404826017
-0.02876887678
-0.02060227417
-0.01044724339
-0.0004475940685
0.006200729916
0.006625611867
0.001701230814
-0.02543368962
-0.02686445077
-0.02800304796
-0.02888546753
-0.0301129656
-0.03200829713
-0.03465011229
-0.03794425351
-0.04162651127
-0.04522952423
-0.04805343947
-0.04917607581
-0.04753713961
-0.04215800829
-0.03252933451
-0.01920955177
-0.004504466123
0.007284355906
0.0112958031
0.007497521096
-0.03323623319
-0.03439060675
-0.03508592945
-0.03544438116
-0.03632336781
-0.03817120031
-0.04111101878
-0.04505543669
-0.04971797933
-0.05457103656
-0.05879844031
-0.06127971226
-0.06064859845
-0.05547667191
-0.04467314741
-0.02819157806
-0.008085044641
0.01051933236
0.02040520424
0.0199448473
-0.04268732189
-0.04313826889
-0.04277890354
-0.04196353339
-0.04194789402
-0.04332111822
-0.04622294422
-0.05054020044
-0.05593626609
-0.06180526448
-0.06721238683
-0.07085714946
-0.07110348831
-0.06612232389
-0.0542449193
-0.03465803521
-0.008689710188
0.01836047755
0.03702386404
0.04345038814
-0.05484942927
-0.05360563104
-0.05100193548
-0.04797184471
-0.04631702859
-0.04669360026
-0.04916485113
-0.05351924595
-0.05931227451
-0.06581717745
-0.07195404381
-0.07624176541
-0.0768034663
-0.07146671905
-0.05806538362
-0.03501649418
-0.00257580276
0.03467114374
0.06566511791
0.08369986571
-0.07196151297
-0.06686185217
-0.05967195076
-0.05286396722
-0.04870526105
-0.04758994235
-0.04930266368
-0.05341621766
-0.05929403282
-0.06602534475
-0.07234973428
-0.0765820722
-0.07659611514
-0.06988725831
-0.05382732778
-0.02610127134
0.01428744111
0.06441797843
0.1126910811
0.1480061867
-0.1009239967
-0.08517904033
-0.0681934029
-0.05541061638
-0.04800196011
-0.04516792766
-0.04606744163
-0.0498995645
-0.05574258319
-0.06245490054
-0.06859289242
-0.07224860629
-0.07101620331
-0.06201297349
-0.04203000861
-0.007863406951
0.0431587167
0.1110836277
0.1869717298
0.2538633898
-0.1732597983
-0.112550325
-0.07277474683
-0.05186982484
-0.04165504707
-0.03785196453
-0.03864209899
-0.04275517363
-0.04892635811
-0.05578821524
-0.06182217681
-0.06501260053
-0.06268002593
-0.05157728518
-0.02784246089
0.01307826263
0.07691432282
0.1700820969
0.2965157796
0.4466160398
-0.3531613743
-0.1528610804
-0.06910345375
-0.04241112221
-0.03157803986
-0.02771386444
-0.02904224718
-0.03399069924
-0.04098398938
-0.04851109416
-0.05491344545
-0.05811568094
-0.0554575659
-0.04361858995
-0.01812697988
0.02733195502
0.102899252
0.226975853
0.4285082399
0.7303369576
)
;

boundaryField
{
    movingWall
    {
        type            zeroGradient;
    }
    fixedWalls
    {
        type            zeroGradient;
    }
    frontAndBack
    {
        type            empty;
    }
}


// ************************************************************************* //
