/*--------------------------------*- C++ -*----------------------------------*\
  =========                 |
  \\      /  F ield         | OpenFOAM: The Open Source CFD Toolbox
   \\    /   O peration     | Website:  https://openfoam.org
    \\  /    A nd           | Version:  13
     \\/     M anipulation  |
\*---------------------------------------------------------------------------*/
FoamFile
{
    format      ascii;
    class       volScalarField;
    location    "13";
    object      p;
}
// * * * * * * * * * * * * * * * * * * * * * * * * * * * * * * * * * * * * * //

dimensions      [0 2 -2 0 0 0 0];

internalField   nonuniform List<scalar> 
400
(
-6.905928471e-07
-0.0005415709446
-0.0008777182709
-0.0009999724126
-0.0009168423958
-0.0006605614215
-0.0002684982034
0.0002235677353
0.0007793589349
0.001358712955
0.001916313622
0.002399768193
0.002754036465
0.002926273686
0.002874962224
0.002581785554
0.002066384128
0.001385384133
0.0007326193538
0.0001408963354
0.0005806067316
6.275390907e-06
-0.0003515014163
-0.0004885298729
-0.0004529742744
-0.0002713552015
2.698856906e-05
0.0004128082192
0.0008547809256
0.001315873951
0.001756592758
0.002126064075
0.00237419765
0.002453854643
0.002331134212
0.001996902863
0.001477175286
0.0008361588991
0.0002444291205
-0.000414635594
0.0009390709389
0.0003023512166
-9.254994703e-05
-0.0002334197179
-0.0002217866565
-8.764900876e-05
0.0001448662004
0.0004543252453
0.0008169693321
0.001201469841
0.001574070981
0.001883095336
0.002078337302
0.002111266283
0.001946750666
0.001574649259
0.001018293442
0.0003334666784
-0.0003591397529
-0.001190676903
0.0009593024016
0.0002495669489
-0.0001937329718
-0.0003401585929
-0.0003430491861
-0.0002391082835
-4.922803968e-05
0.0002136312732
0.0005355692624
0.0008957153053
0.001254718287
0.001568305328
0.001776535102
0.001819298469
0.001647892999
0.001238773629
0.0006032823325
-0.0002124592321
-0.001120490231
-0.002262570131
0.0004653443465
-0.0002915710716
-0.0007631817062
-0.000908433075
-0.0009218503945
-0.0008446507183
-0.0006923062683
-0.0004659526751
-0.0001659149511
0.000198039232
0.0005956910349
0.0009788723156
0.001276965843
0.001409681071
0.001301074938
0.0008981349423
0.0001866522763
-0.0008017050751
-0.00200276714
-0.003520516532
-0.0006926640618
-0.001465433029
-0.001947150187
-0.002090923194
-0.002124321849
-0.002089675324
-0.001992936326
-0.001818013271
-0.001544693463
-0.001163342508
-0.0006897051602
-0.0001681736779
0.000319242923
0.0006636318745
0.0007440514616
0.0004531720054
-0.0002741569938
-0.001436154944
-0.002996590778
-0.004990728052
-0.002650915604
-0.003405973399
-0.003890611999
-0.00404747967
-0.004132968836
-0.004187253711
-0.004201921394
-0.004136587574
-0.003940366983
-0.003570738238
-0.00301390723
-0.002295574115
-0.001501134702
-0.0007717349856
-0.0002940299277
-0.0002672898174
-0.0008532704081
-0.002118335078
-0.004079614784
-0.006660288496
-0.005518460334
-0.006228754742
-0.006719947449
-0.006923661981
-0.007121860674
-0.007350471416
-0.007582635845
-0.007746189531
-0.007746932174
-0.007490410132
-0.006908046056
-0.005976468619
-0.004762879754
-0.003430356921
-0.00224761144
-0.001555267733
-0.001687005682
-0.002855823805
-0.005199557118
-0.008477709335
-0.009365829085
-0.01001004662
-0.01051995767
-0.01081983862
-0.01121609001
-0.01174132861
-0.01234899227
-0.01292956343
-0.01333284099
-0.01338910804
-0.0129361714
-0.01187223187
-0.01018481592
-0.008026148159
-0.005743000338
-0.003865859647
-0.003006979275
-0.003664402806
-0.00624188714
-0.01029246259
-0.01421008988
-0.01476982612
-0.0153101384
-0.01575487253
-0.01643950293
-0.01739947343
-0.01857225924
-0.01981011984
-0.02089789367
-0.02157023805
-0.02153987573
-0.02055183934
-0.01845995626
-0.01532674283
-0.011527481
-0.007797968551
-0.00514519129
-0.004560475634
-0.006982567353
-0.01176962576
-0.02000903627
-0.02046313266
-0.02102740384
-0.02163341735
-0.02266234053
-0.02416585734
-0.02607534009
-0.02821021762
-0.03028894148
-0.03193803153
-0.03271426504
-0.03215744081
-0.02991018753
-0.0258292579
-0.02020747117
-0.01392329109
-0.008446286147
-0.005507750445
-0.007011109558
-0.01225394468
-0.02667558908
-0.02698852158
-0.02752473707
-0.02822922984
-0.02956770022
-0.03163046854
-0.03435791981
-0.03754670716
-0.04085427647
-0.04379868826
-0.04576814278
-0.0460609269
-0.04405806873
-0.03928057021
-0.03177612225
-0.02239384674
-0.01300247839
-0.006256366482
-0.005599614917
-0.01056140456
-0.0341256173
-0.03421954862
-0.03458974601
-0.03519131117
-0.03665236551
-0.03913379919
-0.04260146812
-0.04683806666
-0.05144566911
-0.05584128533
-0.05925459473
-0.06077152533
-0.05938150875
-0.0542872029
-0.04510753446
-0.03240386512
-0.01819574205
-0.006023582975
-0.001478228953
-0.004693262379
-0.04238301307
-0.04206626342
-0.04198601668
-0.04207792463
-0.04327380462
-0.04584288047
-0.04978578479
-0.05486951151
-0.06063342966
-0.06639842132
-0.07124322639
-0.07403283714
-0.07348174838
-0.06835960744
-0.05779315047
-0.04181619577
-0.02222476767
-0.003068928582
0.007510020553
0.008482320465
-0.05177900999
-0.05054616079
-0.04947267598
-0.04837291037
-0.04870556498
-0.05086992848
-0.05488315211
-0.0604760206
-0.06708663616
-0.07393118109
-0.07993345281
-0.08375381723
-0.08384900355
-0.07860041303
-0.06664756281
-0.04735943017
-0.02198635999
0.005626470536
0.02482420424
0.03361469957
-0.06343537786
-0.05998755529
-0.05691247603
-0.05358735799
-0.05228021836
-0.05346857245
-0.05710136065
-0.06287486881
-0.06995754571
-0.07748869543
-0.08419562
-0.0885243767
-0.0886940011
-0.08268302935
-0.06874322462
-0.04554668857
-0.01370165489
0.0244627784
0.05557937797
0.07738343904
-0.07999354447
-0.07090292096
-0.06397345213
-0.05703366541
-0.05329657224
-0.05305643479
-0.05606057824
-0.06168013271
-0.06899519268
-0.07684647773
-0.08375800735
-0.08793480661
-0.08731040024
-0.07955770377
-0.0624389159
-0.03405387608
0.005511978552
0.05859921956
0.1058012859
0.1480413357
-0.1103563308
-0.0857256447
-0.07150849961
-0.05889309874
-0.0518346555
-0.04977532527
-0.05195256843
-0.05731630512
-0.06463501906
-0.07247358803
-0.07911967925
-0.08253190856
-0.08040110636
-0.06982413159
-0.04822823611
-0.01276491923
0.03816420439
0.1070644401
0.1779098568
0.2564046465
-0.1683256426
-0.09981514525
-0.07495222692
-0.05476347939
-0.04458033206
-0.0415163673
-0.04360392629
-0.04922235733
-0.05682270483
-0.06476134284
-0.07116120541
-0.07381054567
-0.07000604786
-0.05695751914
-0.0310311992
0.01187961843
0.07551916038
0.1663152989
0.2760708979
0.4376183739
-0.3983195619
-0.1380153069
-0.07492570456
-0.04706946257
-0.03352859316
-0.02998088656
-0.03270911371
-0.03912615505
-0.04738321527
-0.05574548703
-0.06231095154
-0.06486675048
-0.0608759644
-0.04690648973
-0.01874803108
0.02989868425
0.1068875099
0.2333460071
0.4197955784
0.7799418042
)
;

boundaryField
{
    movingWall
    {
        type            zeroGradient;
    }
    fixedWalls
    {
        type            zeroGradient;
    }
    frontAndBack
    {
        type            empty;
    }
}


// ************************************************************************* //
