/*--------------------------------*- C++ -*----------------------------------*\
  =========                 |
  \\      /  F ield         | OpenFOAM: The Open Source CFD Toolbox
   \\    /   O peration     | Website:  https://openfoam.org
    \\  /    A nd           | Version:  13
     \\/     M anipulation  |
\*---------------------------------------------------------------------------*/
FoamFile
{
    format      ascii;
    class       surfaceScalarField;
    location    "13";
    object      phi;
}
// * * * * * * * * * * * * * * * * * * * * * * * * * * * * * * * * * * * * * //

dimensions      [0 3 -1 0 0 0 0];

internalField   nonuniform List<scalar> 
760
(
-1.320483984e-05
1.321204268e-05
-7.161002133e-05
5.84052347e-05
-0.0001609680055
8.935799559e-05
-0.00026329263
0.0001023246103
-0.0003654986096
0.0001022060657
-0.0004580632504
9.256468132e-05
-0.0005338049433
7.574169562e-05
-0.0005870406023
5.323567248e-05
-0.0006133300478
2.628948452e-05
-0.0006097148857
-3.615106401e-06
-0.0005751535739
-3.456125603e-05
-0.0005113078103
-6.384571776e-05
-0.0004230105308
-8.829725416e-05
-0.0003185212289
-0.0001044892897
-0.0002092337519
-0.0001092874712
-0.0001086832441
-0.0001005505024
-3.069469233e-05
-7.798854092e-05
1.347312335e-05
-4.416780612e-05
2.154342723e-05
-8.070306654e-06
2.154339702e-05
-6.816447678e-05
8.137651538e-05
-0.0002437233779
0.0002339641453
-0.0004892473371
0.0003348821914
-0.0007656167778
0.0003786942072
-0.001041393348
0.0003779827709
-0.001291986673
0.0003431580834
-0.00149813527
0.0002818903315
-0.001644645409
0.0001997458441
-0.001719976189
0.000101620288
-0.001716847043
-6.744248738e-06
-0.001632827939
-0.0001185803938
-0.001472405607
-0.0002242681143
-0.001247688926
-0.00031301402
-0.0009789710505
-0.0003732072505
-0.0006939551288
-0.0003943034569
-0.0004251901229
-0.0003693155373
-0.0002054212304
-0.0002977574411
-6.048554966e-05
-0.0001891034893
-8.5257011e-07
-6.770333236e-05
2.069077556e-05
-0.0001217791302
0.0002031557138
-0.0004110604892
0.0005232454302
-0.0008010757114
0.0007248974875
-0.001235573314
0.0008131918608
-0.001669251705
0.0008116612194
-0.002065780332
0.0007396867538
-0.002395948772
0.0006120588031
-0.002636262308
0.0004400594207
-0.002768555108
0.0002339131383
-0.00278093029
5.63097132e-06
-0.00266850086
-0.0002310097945
-0.002436469963
-0.000456299
-0.002101130058
-0.0006483539254
-0.001690964889
-0.000783372426
-0.001245839158
-0.0008394291946
-0.0008136148191
-0.0008015398758
-0.0004434966964
-0.0006678755744
-0.0001761472288
-0.0004564529969
-3.233431059e-05
-0.0002115163464
-1.164359383e-05
-0.0001703581482
0.0003735139698
-0.0005669166003
0.0009198038724
-0.001095234381
0.001253215326
-0.001681859786
0.001399817297
-0.002269257669
0.001399059111
-0.00281151932
0.0012819484
-0.003271207783
0.001071747238
-0.003617360479
0.0007862120829
-0.003824943784
0.0004414964043
-0.003875485657
5.617280678e-05
-0.003759768484
-0.0003467270141
-0.003479534006
-0.0007365335225
-0.003051081817
-0.001076806149
-0.002507151611
-0.001327302651
-0.00189718743
-0.001449393379
-0.001284268949
-0.00141445836
-0.000737400135
-0.001214744418
-0.000319073344
-0.0008747798631
-7.093479517e-05
-0.0004596550047
-8.257841296e-05
-0.0002148620147
0.00058837602
-0.0007118164276
0.001416758259
-0.001372405925
0.001913804842
-0.002107246874
0.002134658261
-0.002848215683
0.002140027903
-0.003541646977
0.001975379692
-0.004143321629
0.001673421873
-0.004615349053
0.001258239487
-0.004925045234
0.0007511925624
-0.005045632951
0.0001767604916
-0.004958979882
-0.00043338012
-0.004658876548
-0.001036636892
-0.004156038394
-0.001579644336
-0.003482458923
-0.002000882148
-0.002694311486
-0.002237540834
-0.001870942139
-0.002237827737
-0.001107280349
-0.00197840627
-0.0004983024288
-0.001483757873
-0.0001185885305
-0.0008393689822
-0.0002011668911
-0.0002549499961
0.0008433260365
-0.0008435064987
0.002005314712
-0.001627512498
0.002697810814
-0.002504375296
0.003011521044
-0.003397675713
0.00303332825
-0.004248050875
0.002825754814
-0.00500609509
0.00243146604
-0.005627703283
0.001879847613
-0.006071965706
0.001195454912
-0.006301492553
0.0004062872641
-0.00628536025
-0.0004495124935
-0.006003578745
-0.001318418455
-0.005454377377
-0.002128845747
-0.004662034801
-0.002793224763
-0.003684388891
-0.003215186779
-0.002616495223
-0.003305721455
-0.001585567221
-0.003009334351
-0.0007324717151
-0.00233685344
-0.0001811593951
-0.001390681307
-0.0003823261905
-0.0002887525855
0.001132078631
-0.0009561961086
0.002672758176
-0.001849128441
0.003590743094
-0.002855497764
0.004017890348
-0.003893512998
0.004071343391
-0.004900632912
0.003832874679
-0.005824379873
0.003355212952
-0.006615873575
0.002671341242
-0.007226344991
0.001805926234
-0.007606617623
0.0007865597935
-0.007709886264
-0.0003462439504
-0.007496926336
-0.001531378457
-0.006945731356
-0.002680040769
-0.006063393268
-0.003675562901
-0.004900138671
-0.004378441435
-0.003561236055
-0.004644624151
-0.00220920124
-0.004361369263
-0.001045563568
-0.003500491148
-0.0002670942131
-0.002169150609
-0.0006494203346
-0.000313793221
0.001445871837
-0.001041540427
0.003400505328
-0.002020732655
0.00456993526
-0.003133946275
0.005131103961
-0.004297241768
0.005234638791
-0.005447803371
0.00498343625
-0.00653287487
0.004440284427
-0.007501408509
0.003639874825
-0.008298901608
0.002603419244
-0.008865507373
0.00135316545
-0.009137983712
-7.37677189e-05
-0.0090544049
-0.001614957366
-0.00856561665
-0.003168829052
-0.007650243493
-0.004590936106
-0.006336362001
-0.005692323012
-0.004725495298
-0.006255490971
-0.003009752396
-0.006077112279
-0.001463111311
-0.005047132253
-0.0003864756432
-0.003245786229
-0.001035896
-0.0003275599314
0.001773431735
-0.001090827245
0.004163772617
-0.002124061143
0.005603169101
-0.003308369737
0.006315412568
-0.004560798338
0.006487067315
-0.005821304189
0.006243942092
-0.007040255129
0.005659235376
-0.008168385166
0.004768004835
-0.009149869922
0.003584903927
-0.009918692929
0.002121988367
-0.01039807454
0.0004056137913
-0.01050551211
-0.001507519923
-0.01016056709
-0.003513774087
-0.009302999616
-0.005448503594
-0.007920147296
-0.007075175408
-0.006085285899
-0.008090352508
-0.003999014041
-0.008163384269
-0.00200734959
-0.007038796738
-0.0005507020683
-0.004702433794
-0.00158659819
-0.0003289365023
0.002102368203
-0.001098428583
0.004933264715
-0.002144595009
0.006649335485
-0.003350140306
0.007520957903
-0.004635826764
0.007772753717
-0.005947339553
0.007555454894
-0.007241927385
0.006953823243
-0.00847715014
0.006003227587
-0.009602455139
0.004710208863
-0.0105535795
0.003073112658
-0.01124958726
0.001101621501
-0.01159349827
-0.001163609065
-0.0114776492
-0.00362962319
-0.01079770475
-0.006128448029
-0.009482186195
-0.008390693981
-0.007543061283
-0.01002947751
-0.005148020374
-0.01055842527
-0.002688850367
-0.009497966786
-0.0007718643439
-0.006619419997
-0.002358462696
-0.0003200266757
0.002422394856
-0.001066314378
0.00567955247
-0.002078854682
0.007661875749
-0.003243563462
0.008685666724
-0.004487304537
0.009016494757
-0.005764420865
0.008832571248
-0.007042946779
0.008232349206
-0.008292841419
0.007253122236
-0.009476716227
0.005894083589
-0.01054267576
0.004139072124
-0.0114184928
0.001977438592
-0.01200679439
-0.0005753076103
-0.01218561485
-0.003450802786
-0.01181158702
-0.006502475826
-0.01074489008
-0.009457390884
-0.008903016167
-0.01187135145
-0.006361508166
-0.0130999333
-0.00349281357
-0.0123666614
-0.001060940202
-0.009051293627
-0.003419403
-0.0003085157581
0.002730910598
-0.001009380521
0.006380417293
-0.001942599486
0.008595094658
-0.00299721121
0.00974027846
-0.004108999263
0.01012828278
-0.005244567209
0.00996813923
-0.00638689937
0.009374681432
-0.00752375339
0.008389976295
-0.00863843551
0.007008765573
-0.009702100986
0.005202737434
-0.01066585297
0.002941190635
-0.01144983081
0.0002086702481
-0.01193981119
-0.002960822416
-0.01197218507
-0.006470101886
-0.01134694796
-0.01008262793
-0.009868259712
-0.01335003968
-0.007456789905
-0.01551140307
-0.004360198503
-0.01546325278
-0.001423784864
-0.01198770749
-0.004843187841
-0.0003110022677
0.003041912836
-0.0009614517264
0.007030866785
-0.001778495018
0.00941213787
-0.002653244615
0.01061502802
-0.003535594812
0.01101063295
-0.0044102356
0.01084278006
-0.005280177648
0.01024462355
-0.006155737097
0.009265535865
-0.007046261351
0.007899289658
-0.007953527035
0.006110002908
-0.00886304824
0.003850711599
-0.009734150856
0.001079772826
-0.01047822342
-0.002216749735
-0.01094734062
-0.006000984487
-0.01091238208
-0.01011758628
-0.01007551567
-0.01418690595
-0.008161684726
-0.01742523393
-0.005167801113
-0.01845713637
-0.001853517543
-0.01530199121
-0.006696705353
-0.0003581537081
0.00340006648
-0.0009818908036
0.007654603857
-0.001661142916
0.0100913899
-0.002290165775
0.01124405084
-0.002844062668
0.01156452983
-0.003335894319
0.01133461175
-0.003795699474
0.01070442868
-0.004260641905
0.009730478429
-0.004768256084
0.008406903464
-0.005353183224
0.006694930484
-0.006040183411
0.004537711581
-0.006834027924
0.001873617159
-0.007699973624
-0.001350804051
-0.008537782137
-0.005163175853
-0.009141484973
-0.009513883332
-0.009162878596
-0.01416551213
-0.008140344742
-0.01844776759
-0.005715718126
-0.02088176286
-0.002318754245
-0.01869895505
-0.009015459595
-0.0005037935872
0.003903859973
-0.001161736163
0.008312546341
-0.001693642632
0.01062329628
-0.002008820363
0.0115592286
-0.002130381006
0.01168609052
-0.002116656498
0.01132088728
-0.002033779527
0.01062155137
-0.001949943145
0.009646642664
-0.00192933217
0.008386292165
-0.002036546152
0.006802144633
-0.002331933688
0.004833099065
-0.002865948766
0.002407632173
-0.003666065759
-0.000550687091
-0.004708156525
-0.004121084931
-0.005867958758
-0.008354080905
-0.00683349112
-0.0131999797
-0.007033862733
-0.018247396
-0.005724753237
-0.02219087241
-0.002741505663
-0.02168220268
-0.01175696513
-0.0008343828651
0.004738242741
-0.001615847047
0.0090940104
-0.001971319999
0.01097876903
-0.001869250575
0.01145715924
-0.001423922406
0.0112407624
-0.0007636631312
0.01066062792
-3.077023137e-06
0.009860965696
0.000763538549
0.008880026808
0.001442168388
0.007707662529
0.001946538284
0.00629777468
0.002189283392
0.004590353858
0.002082797092
0.002514118383
0.001541127581
-9.017488434e-06
0.0005077593901
-0.003087716764
-0.001016273769
-0.006830047661
-0.002854232706
-0.01136202072
-0.004478094377
-0.01662353449
-0.00482073306
-0.02184823368
-0.002947350775
-0.02355558513
-0.014704316
-0.001468495667
0.006206738307
-0.002389327768
0.01001484251
-0.002391715749
0.0109811567
-0.001631188588
0.01069663209
-0.0003859576926
0.009995531461
0.001120398936
0.009154271907
0.002724228211
0.008257136124
0.00429933232
0.007304923291
0.005741423294
0.006265571559
0.006949804784
0.005089392996
0.007820698372
0.003719460031
0.008241670351
0.002093146304
0.008088722333
0.0001439302784
0.007234072313
-0.002233066694
0.005559571985
-0.005155547304
0.00305339839
-0.008855847216
6.562865976e-05
-0.01363576464
-0.002454798597
-0.01932780665
-0.002604303984
-0.02340607967
-0.01730862005
-0.002366639999
0.008573378113
-0.002969001721
0.01061720453
-0.001934554244
0.009946709134
6.152217699e-05
0.00870055562
0.002507628237
0.007549424838
0.005106379606
0.006555520879
0.007681158744
0.005682356921
0.01011334922
0.004872732909
0.0123079597
0.004070960996
0.01417214319
0.003225209383
0.01560412666
0.002287476377
0.0164858335
0.001211439312
0.01666967752
-3.991365948e-05
0.01600472672
-0.001568115901
0.01428713295
-0.003437953508
0.01131867074
-0.005887384828
0.007044341544
-0.009361435628
0.002194664702
-0.01447812971
-0.001030349959
-0.02018106511
-0.01833896999
-0.002149583404
0.01072296126
-7.200908693e-05
0.008539630525
0.003738897329
0.006135802807
0.007711834419
0.004727618683
0.01154802002
0.003713239365
0.01512144119
0.002982099792
0.01837467868
0.002429119214
0.02127434744
0.001973063974
0.02378415867
0.001561149557
0.02585231083
0.001157057028
0.02740559919
0.0007341879993
0.02834330124
0.0002737373595
0.02855892703
-0.0002555393352
0.02787507143
-0.0008842601175
0.02609034408
-0.001653226235
0.02290193333
-0.002698973891
0.017902208
-0.004361710403
0.01076376144
-0.007339683206
0.002910816481
-0.01232812022
-0.01542815362
0.01072296103
0.01926259147
0.02539839417
0.03012601264
0.03383925192
0.03682135174
0.0392504709
0.04122353484
0.04278468442
0.0439417415
0.04467592953
0.04494966694
0.04469412767
0.0438098676
0.04215664136
0.03945766758
0.03509595715
0.02775627386
0.01542815364
)
;

boundaryField
{
    movingWall
    {
        type            calculated;
        value           uniform 0;
    }
    fixedWalls
    {
        type            calculated;
        value           uniform 0;
    }
    frontAndBack
    {
        type            empty;
    }
}


// ************************************************************************* //
