/*--------------------------------*- C++ -*----------------------------------*\
  =========                 |
  \\      /  F ield         | OpenFOAM: The Open Source CFD Toolbox
   \\    /   O peration     | Website:  https://openfoam.org
    \\  /    A nd           | Version:  13
     \\/     M anipulation  |
\*---------------------------------------------------------------------------*/
FoamFile
{
    format      ascii;
    class       surfaceScalarField;
    location    "13";
    object      phi_0;
}
// * * * * * * * * * * * * * * * * * * * * * * * * * * * * * * * * * * * * * //

dimensions      [0 3 -1 0 0 0 0];

internalField   nonuniform List<scalar> 
760
(
2.941008303e-07
-2.961624587e-07
-3.80769027e-05
3.83719558e-05
-0.0001150891148
7.701407808e-05
-0.0002176283768
0.0001025409777
-0.0003326451678
0.0001150168962
-0.0004491967362
0.000116551349
-0.0005579544274
0.0001087571528
-0.0006502829689
9.232879369e-05
-0.0007177416861
6.745941853e-05
-0.0007523263716
3.458441252e-05
-0.000747482495
-4.843951798e-06
-0.0006997431291
-4.77397307e-05
-0.0006105560118
-8.918707571e-05
-0.0004877555699
-0.0001227999627
-0.0003459459703
-0.0001418088799
-0.0002051712717
-0.0001407743588
-8.758124377e-05
-0.0001175901085
-1.224930165e-05
-7.533177141e-05
1.196371775e-05
-2.42126665e-05
1.196289103e-05
-4.023803723e-05
3.994221382e-05
-0.0001711972978
0.0001693350426
-0.0003823101951
0.0002881313122
-0.0006466513738
0.0003668835583
-0.0009364689652
0.0004048336554
-0.001226652415
0.0004067345634
-0.00149457617
0.0003766817235
-0.001719072458
0.0003168248489
-0.001880010369
0.0002283982038
-0.001959183508
0.0001137574059
-0.001942602124
-2.142609232e-05
-0.00182379783
-0.0001665448175
-0.001607460243
-0.0003055228029
-0.001312132679
-0.0004181257499
-0.0009706831088
-0.0004832578884
-0.0006272401043
-0.0004842170823
-0.0003299163148
-0.0004149131403
-0.000119704042
-0.0002855435724
-1.697261123e-05
-0.0001269476189
-5.009686731e-06
-8.826090631e-05
0.0001282051404
-0.0003188981036
0.0003999767424
-0.0006551257594
0.0006243607011
-0.001058104825
0.0007698621679
-0.00149054967
0.0008372767271
-0.001918395802
0.0008345789051
-0.002310335828
0.0007686232789
-0.00263689202
0.0006433814995
-0.002870278575
0.0004617836406
-0.002985738348
0.0002292167074
-0.002964447073
-4.271641989e-05
-0.002797605157
-0.0003333870075
-0.002490896495
-0.00061223059
-0.002068100772
-0.000840919629
-0.001572188964
-0.0009791677765
-0.001062132337
-0.0009942731259
-0.0006041048968
-0.0008729397368
-0.0002573336552
-0.0006323149461
-5.751562463e-05
-0.0003267705727
-6.252489413e-05
-0.0001324614473
0.0002606675685
-0.000457397516
0.0007249139605
-0.0009106649037
0.001077626487
-0.001439530326
0.001298725247
-0.001998349522
0.001396093992
-0.002546893692
0.001383122322
-0.003048403921
0.001270134526
-0.003468070219
0.00106304867
-0.003772715884
0.0007664276969
-0.003932145468
0.0003886451331
-0.003922250329
-5.261063709e-05
-0.003729598654
-0.0005260374123
-0.003356880958
-0.0009849469654
-0.002828098408
-0.001369702775
-0.002191626548
-0.001615640482
-0.001518630184
-0.001667270475
-0.0008942599098
-0.001497309727
-0.0004009336788
-0.001125643702
-9.7531829e-05
-0.0006301731879
-0.0001600573823
-0.00017204481
0.0004327131504
-0.0005837197587
0.001136587484
-0.001145644694
0.001639548472
-0.001791269516
0.001944348385
-0.002467403421
0.002072227577
-0.003129463405
0.002045182707
-0.003737503512
0.001878173527
-0.004253459214
0.001579004088
-0.004640065322
0.001153034006
-0.004861700632
0.0006102820401
-0.004887296105
-2.701460667e-05
-0.004695269809
-0.0007180640108
-0.004280257573
-0.001399958411
-0.003660821134
-0.001989140174
-0.002886173117
-0.002390289241
-0.002038410277
-0.002515033615
-0.001225555949
-0.002310167193
-0.0005621016435
-0.001789100363
-0.0001402410149
-0.001052034023
-0.0003002994782
-0.0002075872623
0.0006402997697
-0.0006981858287
0.001627183593
-0.001360108944
0.00230147006
-0.002114291377
0.002698529772
-0.002901240476
0.002859175706
-0.003673683983
0.002817625851
-0.004390407277
0.002594896086
-0.005011832803
0.002200430061
-0.005497646748
0.001638848523
-0.005806618611
0.0009192567228
-0.005898846441
6.521458205e-05
-0.005740762854
-0.0008761473482
-0.005313183704
-0.001827536094
-0.004622264289
-0.002680059948
-0.003711614748
-0.003300939849
-0.00267122891
-0.003555418192
-0.001635611607
-0.003345787746
-0.0007626952418
-0.002662014503
-0.0001929446919
-0.001621787562
-0.0004932447492
-0.0002394352099
0.0008797342477
-0.0008007256364
0.002188472022
-0.001552921784
0.00305366504
-0.002406166318
0.003551774073
-0.003296236663
0.003749245628
-0.004174950754
0.003696337904
-0.005001787563
0.003421731096
-0.005737544968
0.002936189105
-0.006340287228
0.00224159341
-0.006763660483
0.001342634694
-0.006957927086
0.0002594839198
-0.006874419344
-0.0009596530802
-0.006474445733
-0.002227507374
-0.005743445763
-0.003411057623
-0.004709736615
-0.004334648445
-0.003463482961
-0.004801671186
-0.002165409035
-0.00464386434
-0.001028899805
-0.003798522055
-0.0002646381881
-0.002386053098
-0.0007578837988
-0.0002674618079
0.00114719538
-0.000890029746
0.002811040459
-0.001720415352
0.003884050831
-0.00265958267
0.004490940091
-0.003640191761
0.004729852242
-0.004615016673
0.004671159441
-0.005546387621
0.004353100267
-0.006397820971
0.003787625589
-0.007128074854
0.002971851977
-0.007687602325
0.001902168175
-0.008017763678
0.0005896485381
-0.008053805348
-0.0009236078374
-0.007733359413
-0.002547953115
-0.007012556373
-0.004131859754
-0.005891263663
-0.005455939645
-0.004444940814
-0.006247995231
-0.002851669735
-0.006237136101
-0.001388508067
-0.005261687297
-0.0003656600216
-0.00340890034
-0.001123544027
-0.0002913468303
0.001438541931
-0.0009640779872
0.003483772718
-0.001857013952
0.004776987445
-0.002863022424
0.00549694587
-0.003913040384
0.005779865239
-0.004962643862
0.005720760083
-0.005979357343
0.005369814798
-0.006932308333
0.004740581551
-0.00778441333
0.003823960659
-0.008486835157
0.002604592884
-0.008975868246
0.001078680844
-0.009173280257
-0.000726193086
-0.008992503428
-0.00272873018
-0.008353867244
-0.00477049719
-0.007213885869
-0.0065959205
-0.005610452324
-0.007851431463
-0.003716243063
-0.008131342275
-0.001867915509
-0.007110016451
-0.0005078588404
-0.004768953735
-0.001631400121
-0.0003112605098
0.001749802921
-0.00102173688
0.004194249991
-0.001957500454
0.005712750745
-0.003003509345
0.006542951161
-0.0040900453
0.006866395845
-0.005177280941
0.006807993981
-0.006240403073
0.006432939436
-0.007257492663
0.005757675543
-0.00820015897
0.004766626583
-0.009026211177
0.00343064358
-0.009674054801
0.001726520647
-0.01005924702
-0.0003410024537
-0.01007645566
-0.002711522017
-0.009609246303
-0.005237706346
-0.008558345849
-0.007646818706
-0.006895872586
-0.009513903291
-0.004749170046
-0.01027804044
-0.002486037876
-0.009373144873
-0.0007045500013
-0.006550447429
-0.002335952751
-0.0003290368716
0.002078840234
-0.001065464737
0.004930678413
-0.002020852117
0.006668137877
-0.003071316298
0.007593412896
-0.004147486902
0.007942563699
-0.005216123807
0.007876630532
-0.006262703439
0.007479519905
-0.007277820403
0.006772793516
-0.008246895042
0.005735697187
-0.009141714545
0.004325458036
-0.009912742966
0.002497548834
-0.01048150491
0.0002277608215
-0.0107362825
-0.002456742478
-0.01053226011
-0.005441728556
-0.009710759688
-0.008468321784
-0.008152105636
-0.01107255724
-0.005884222882
-0.0125459266
-0.003242074272
-0.01201529345
-0.0009694402069
-0.008823084169
-0.003305396456
-0.0003500425531
0.002428883796
-0.001105234878
0.005685871869
-0.002055409692
0.007618312949
-0.003066013875
0.008604015726
-0.004069962088
0.008946511494
-0.005043582165
0.008850251292
-0.005985721815
0.008421658382
-0.006903011213
0.007690080246
-0.00779954986
0.006632235296
-0.008668441178
0.005194348548
-0.009482950627
0.003312057973
-0.01018635053
0.0009311574061
-0.01067852352
-0.001964571988
-0.01080657199
-0.005313680492
-0.01036415403
-0.008910739751
-0.009127927454
-0.01230877722
-0.006970977148
-0.01470287634
-0.004094806701
-0.01489146817
-0.001313057018
-0.01160482404
-0.004618447759
-0.0003861381559
0.002815023577
-0.001163782456
0.006463518254
-0.002084606364
0.008539136094
-0.003002093381
0.009521499793
-0.003856622505
0.009801039559
-0.004639650293
0.009633279976
-0.005367602183
0.009149612142
-0.006066470227
0.008388946739
-0.006762657418
0.007328421319
-0.007475949521
0.005907641539
-0.008211414505
0.004047522642
-0.008947858775
0.00166759788
-0.009619901029
-0.00129253251
-0.01009533821
-0.004838243424
-0.01015161269
-0.008854462908
-0.009477011314
-0.01298337675
-0.007755194251
-0.01642469655
-0.004935032627
-0.01771164118
-0.001734328011
-0.01480552998
-0.006352778684
-0.0004604614301
0.003275486243
-0.001282903456
0.00728596153
-0.00215094737
0.009407177212
-0.002909753152
0.01028030131
-0.003520031091
0.01041131674
-0.003998936639
0.01011218866
-0.004386713513
0.009537391728
-0.00473179561
0.008734028298
-0.005084412193
0.007681035783
-0.005492671602
0.006315898662
-0.005997146051
0.004551994171
-0.006621220841
0.002291670591
-0.007352768252
-0.0005609840563
-0.008113223011
-0.0040777857
-0.008712087305
-0.008255591957
-0.008799992403
-0.01289547141
-0.007883065319
-0.0173416235
-0.00555895751
-0.02003574548
-0.002203997666
-0.01816048363
-0.008556774674
-0.0006143461606
0.003889832664
-0.001528010123
0.008199623064
-0.002310621682
0.01018978475
-0.002818789078
0.01078846828
-0.003062083148
0.01065461205
-0.00310182612
0.01015193398
-0.003010862557
0.009446429249
-0.002862690235
0.008585855174
-0.002730253007
0.007548598666
-0.002687134863
0.006272780172
-0.002806067444
0.004670926783
-0.003154694519
0.002640299514
-0.003781841289
6.616141525e-05
-0.004687426039
-0.00317220624
-0.005766178863
-0.007176840681
-0.006713717412
-0.01194792898
-0.006936212014
-0.01711911968
-0.005652958372
-0.02131899713
-0.002634736539
-0.0211787106
-0.01119150898
-0.0009098862083
0.004799718301
-0.001976222249
0.009265954326
-0.002590954261
0.010804515
-0.002687851322
0.01088536936
-0.002383887905
0.01035065203
-0.001812586629
0.009580630721
-0.001088896756
0.008722734835
-0.0003117463807
0.00780870268
0.0004277184049
0.00680913575
0.001039525193
0.005660973782
0.00142738689
0.004283062396
0.00148996087
0.002577725288
0.001125507085
0.0004306165284
0.0002506794368
-0.002297374458
-0.001150133439
-0.005776029253
-0.002911036394
-0.01018703155
-0.00448277119
-0.01554739391
-0.004794860363
-0.02100691079
-0.002831177549
-0.02314239087
-0.01402268731
-0.001408370016
0.006208087389
-0.002630665227
0.01048824732
-0.00280784412
0.01098169506
-0.002158600521
0.01023612979
-0.00101295873
0.00920501287
0.0003976545656
0.008170013994
0.001918705697
0.007201681021
0.003436711142
0.006290699801
0.004856477145
0.005389373275
0.006084332317
0.004433116169
0.00701781031
0.00334958053
0.007539811924
0.002055727043
0.007516371918
0.0004540620099
0.006801466074
-0.001582464095
0.005259390876
-0.004233951992
0.002854321415
-0.007781958443
-9.07749862e-05
-0.01260230329
-0.00247211539
-0.01862555878
-0.002450293381
-0.02316421485
-0.01647297996
-0.002135082653
0.008343169471
-0.002994906272
0.01134807375
-0.001886891713
0.009873680417
0.0001677907787
0.008181446471
0.002563237677
0.006809563919
0.0050284755
0.005704773971
0.007425487058
0.004804669235
0.009668511053
0.004047675807
0.01169134655
0.003366537321
0.01342394074
0.002700524036
0.014777587
0.001995938319
0.01564263611
0.001190673695
0.01588084117
0.0002158497709
0.0153204211
-0.001022047928
0.01374879527
-0.002662325392
0.01092554079
-0.004958706931
0.006764594991
-0.008441350417
0.001974674265
-0.01383564172
-0.00107742001
-0.02011212765
-0.01755039904
-0.002456201356
0.01079937123
2.292087113e-05
0.008868958042
0.004179306156
0.005717298482
0.008246129026
0.004114624365
0.01192946084
0.003126232638
0.01521605165
0.002418182884
0.01811668526
0.001904035971
0.02064599155
0.001518372344
0.02280647713
0.001206053572
0.0245812131
0.0009257876558
0.02593400721
0.0006431483124
0.02679519206
0.0003294948205
0.0270492081
-3.816294026e-05
0.02652849926
-0.0005013499465
0.02498263027
-0.001116453395
0.02205555993
-0.002031639232
0.01723830593
-0.003624092999
0.01013936268
-0.00673670372
0.002319840363
-0.0122926021
-0.01523056048
0.01079937086
0.01966833005
0.02538563078
0.02950025664
0.03262648901
0.03504467217
0.03694871128
0.0384670849
0.03967313452
0.04059892086
0.04124207164
0.0415715624
0.04153340357
0.04103205491
0.0399156003
0.0378839631
0.03425986468
0.02752316521
0.01523056229
)
;

boundaryField
{
    movingWall
    {
        type            calculated;
        value           uniform 0;
    }
    fixedWalls
    {
        type            calculated;
        value           uniform 0;
    }
    frontAndBack
    {
        type            empty;
    }
}


// ************************************************************************* //
