/*--------------------------------*- C++ -*----------------------------------*\
  =========                 |
  \\      /  F ield         | OpenFOAM: The Open Source CFD Toolbox
   \\    /   O peration     | Website:  https://openfoam.org
    \\  /    A nd           | Version:  13
     \\/     M anipulation  |
\*---------------------------------------------------------------------------*/
FoamFile
{
    format      ascii;
    class       surfaceScalarField;
    location    "13";
    object      phi_0;
}
// * * * * * * * * * * * * * * * * * * * * * * * * * * * * * * * * * * * * * //

dimensions      [0 3 -1 0 0 0 0];

internalField   nonuniform List<scalar> 
760
(
-1.32028885e-05
1.321381149e-05
-7.160709579e-05
5.840421533e-05
-0.000160962581
8.935543561e-05
-0.0002632839231
0.0001023213613
-0.0003654866949
0.0001022027513
-0.0004580485393
9.256179169e-05
-0.0005337881857
7.57395756e-05
-0.0005870228219
5.323455805e-05
-0.0006133124124
2.628951146e-05
-0.0006096985789
-3.613912808e-06
-0.0005751396846
-3.455897105e-05
-0.0005112971775
-6.384258056e-05
-0.0004230036239
-8.82936316e-05
-0.0003185180546
-0.0001044856482
-0.000209233809
-0.0001092843202
-0.0001086855602
-0.0001005483203
-3.069796584e-05
-7.798766766e-05
1.347022951e-05
-4.41682822e-05
2.154185048e-05
-8.071715072e-06
2.154174143e-05
-6.816147207e-05
8.137532852e-05
-0.0002437139368
0.000233956722
-0.0004892290863
0.0003348703928
-0.0007655884591
0.000378680585
-0.001041355278
0.0003779694139
-0.001291940269
0.0003431466263
-0.001498082809
0.0002818819761
-0.001644589785
0.0001997414168
-0.001719920598
0.0001016202314
-0.001716794689
-6.739891252e-06
-0.001632781711
-0.0001185720093
-0.001472367771
-0.0002242565717
-0.001247660825
-0.0003130006207
-0.0009789529125
-0.0003731936074
-0.0006939459886
-0.0003942913059
-0.0004251879194
-0.0003693064697
-0.0002054231212
-0.0002977525733
-6.048847991e-05
-0.0001891030568
-8.541608886e-07
-6.770618557e-05
2.068751909e-05
-0.0001217739721
0.0002031493151
-0.0004110435649
0.0005232263169
-0.0008010434965
0.0007248701878
-0.001235524374
0.0008131613923
-0.001669186778
0.0008116317427
-0.002065701811
0.000739661562
-0.002395860284
0.0006120403439
-0.002636168338
0.0004400493624
-0.002768460588
0.0002339123784
-0.002780839811
5.63922869e-06
-0.002668419117
-0.0002309927913
-0.002436400464
-0.0004562753124
-0.002101075096
-0.0006483260693
-0.001690925245
-0.0007833435262
-0.001245813976
-0.0008394026359
-0.0008136016928
-0.0008015188133
-0.0004434920424
-0.0006678623042
-0.0001761469703
-0.0004564482203
-3.233488208e-05
-0.0002115183578
-1.164736918e-05
-0.0001703508049
0.0003734999956
-0.0005668925997
0.0009197680439
-0.001095189056
0.001253166499
-0.001681791581
0.001399763846
-0.002269167722
0.00139900783
-0.002811410842
0.001281904618
-0.003271085452
0.001071714898
-0.003617229977
0.0007861938416
-0.003824811267
0.0004414936304
-0.003875357518
5.618546018e-05
-0.00375965023
-0.0003467000943
-0.003479430455
-0.0007364950954
-0.003050996425
-0.001076760103
-0.002507086143
-0.00132725381
-0.001897141736
-0.001449347046
-0.001284240931
-0.001414419628
-0.0007373860249
-0.001214717243
-0.0003190683416
-0.0008747659389
-7.09340906e-05
-0.0004596526268
-8.25814351e-05
-0.0002148528822
0.0005883527588
-0.0007117867192
0.001416701845
-0.001372349981
0.001913729662
-0.00210716299
0.002134576803
-0.002848105239
0.002139950048
-0.003541513725
0.001975313065
-0.004143170925
0.001673372065
-0.004615187336
0.001258210231
-0.004924879516
0.0007511857918
-0.00504547037
0.0001767763017
-0.004958827122
-0.000433343344
-0.004658739536
-0.001036582677
-0.004155921837
-0.00157957779
-0.003482365892
-0.002000809742
-0.002694243043
-0.002237469887
-0.001870897063
-0.002237765608
-0.001107255149
-0.001978359171
-0.0004982917665
-0.001483729317
-0.0001185861438
-0.000839358207
-0.0002011675154
-0.0002549398051
0.000843292483
-0.0008434733449
0.002005235389
-0.001627449974
0.002697706259
-0.002504281507
0.003011408311
-0.003397552045
0.003033220581
-0.004247901258
0.002825662264
-0.005005925103
0.0024313959
-0.005627519601
0.001879804722
-0.006071775628
0.001195441812
-0.006301303589
0.0004063042553
-0.006285179692
-0.0004494672442
-0.006003413351
-0.001318349019
-0.005454233007
-0.002128758136
-0.004661915942
-0.002793126807
-0.003684298157
-0.003215087676
-0.002616432793
-0.003305630986
-0.001585530421
-0.003009261557
-0.0007324550502
-0.002336804661
-0.0001811552519
-0.001390657935
-0.0003823227084
-0.0002887423142
0.001132034758
-0.0009561624981
0.002672655597
-0.001849064687
0.003590608474
-0.00285540177
0.004017745379
-0.003893385927
0.004071204751
-0.004900478517
0.003832754862
-0.005824203518
0.003355120914
-0.006615681667
0.002671282878
-0.007226144542
0.001805904683
-0.007606415905
0.0007865756046
-0.007709690546
-0.0003461926209
-0.007496743578
-0.001531296005
-0.006945568063
-0.002679933672
-0.006063255048
-0.003675439851
-0.004900029707
-0.004378313051
-0.003561158326
-0.004644502421
-0.002209153572
-0.004361266351
-0.001045541026
-0.003500417189
-0.000267088316
-0.002169110598
-0.0006494110193
-0.0003137839948
0.00144581875
-0.001041509834
0.003400381453
-0.002020673936
0.004569772643
-0.003133857173
0.0051309286
-0.004297123075
0.005234470666
-0.005447658396
0.004983290201
-0.006532708426
0.004440170964
-0.007501226309
0.003639800773
-0.00829870985
0.002603388216
-0.00886531241
0.001353178139
-0.009137792079
-7.371298223e-05
-0.009054222669
-0.001614865453
-0.00856545003
-0.003168706361
-0.007650098372
-0.004590791568
-0.006336243643
-0.005692167846
-0.004725407559
-0.006255338601
-0.003009696338
-0.006076977657
-0.001463083669
-0.005047029871
-0.0003864680766
-0.003245726196
-0.001035879171
-0.0003275529109
0.001773371687
-0.001090803269
0.004163631806
-0.002124014016
0.005602983487
-0.003308297169
0.006315211724
-0.004560700702
0.006486874204
-0.00582118421
0.006243773723
-0.00704011688
0.005659103653
-0.008168233398
0.004767917299
-0.009149709621
0.003584864426
-0.009918529007
0.002121997493
-0.01039791142
0.0004056693809
-0.01050535433
-0.001507422582
-0.01016041916
-0.003513641589
-0.00930286633
-0.005448344468
-0.007920033879
-0.007075000375
-0.006085197568
-0.008090175017
-0.003998954527
-0.008163220803
-0.00200731863
-0.007038665807
-0.0005506930978
-0.004702351806
-0.00158657241
-0.0003289327211
0.002102304455
-0.001098414476
0.004933113519
-0.002144565502
0.006649134623
-0.003350093265
0.007520739434
-0.004635762172
0.007772543087
-0.005947259487
0.007555271038
-0.007241835074
0.006953679248
-0.008477049193
0.006003131417
-0.009602349055
0.00471016427
-0.01055347124
0.003073119644
-0.01124947907
0.00110167714
-0.01159339159
-0.00116351009
-0.01147754559
-0.003629487649
-0.01079760638
-0.006128283727
-0.009482096691
-0.008390510128
-0.007542985974
-0.01002928582
-0.005147965321
-0.01055824156
-0.002688819312
-0.009497811856
-0.0007718545762
-0.006619316668
-0.002358427125
-0.000320026869
0.002422331386
-0.001066312547
0.00567939911
-0.002078847409
0.007661669592
-0.003243548952
0.008685440896
-0.004487282417
0.00901627649
-0.005764392475
0.008832381069
-0.007042914376
0.008232201142
-0.008292807286
0.007253024316
-0.009476682256
0.005894039225
-0.01054264281
0.004139080192
-0.01141846062
0.001977494844
-0.01200676117
-0.0005752095789
-0.01218557841
-0.003450670425
-0.01181154577
-0.006502316372
-0.01074484447
-0.009457211461
-0.008902969811
-0.01187116053
-0.006361468012
-0.01309974342
-0.003492787266
-0.01236649261
-0.001060930742
-0.00905117332
-0.003419357924
-0.0003085202314
0.002730851684
-0.001009392124
0.006380270871
-0.001942616883
0.008594894444
-0.002997233062
0.009740056975
-0.004109024769
0.0101280681
-0.005244596738
0.009967952986
-0.006386933914
0.009374538294
-0.007523793449
0.008389883817
-0.008638481323
0.007008727054
-0.009702151354
0.005202750291
-0.01066590537
0.002941248727
-0.01144988139
0.0002087663495
-0.01193985386
-0.002960697989
-0.01197221457
-0.006469955662
-0.0113469608
-0.01008246525
-0.00986825614
-0.0133498652
-0.007456775463
-0.01551122412
-0.00436018293
-0.01546308513
-0.001423777375
-0.01198757898
-0.004843135255
-0.0003110108431
0.003041862593
-0.0009614764599
0.007030736333
-0.001778536912
0.009411954975
-0.002653302816
0.01061482279
-0.003535667884
0.01101043308
-0.004410322548
0.01084260759
-0.005280277767
0.0102444935
-0.006155848084
0.009265454093
-0.007046381892
0.007899260696
-0.007953654238
0.006110022831
-0.008863178082
0.003850772499
-0.009734277073
0.001079865188
-0.0104783395
-0.002216635644
-0.01094743874
-0.006000856457
-0.01091245547
-0.01011744856
-0.01007556063
-0.01418676007
-0.008161703255
-0.01742508149
-0.0051678018
-0.01845698653
-0.001853514025
-0.01530186682
-0.006696649147
-0.0003581657269
0.003400028385
-0.0009819268585
0.007654497333
-0.001661206391
0.01009123458
-0.002290256292
0.01124387263
-0.002844177914
0.01156435464
-0.003336031624
0.01133446126
-0.003795856412
0.0107043183
-0.004260810799
0.009730408486
-0.004768434515
0.008406883847
-0.005353367272
0.006694955793
-0.006040367842
0.004537773077
-0.006834206944
0.001873704221
-0.007700140832
-0.001350701843
-0.008537929818
-0.005163067537
-0.009141605372
-0.009513773138
-0.009162965343
-0.01416540021
-0.008140395702
-0.01844765121
-0.005715737606
-0.02088164464
-0.002318756359
-0.01869884814
-0.009015405357
-0.0005038079027
0.003903836362
-0.001161780179
0.008312469568
-0.001693721954
0.01062317644
-0.002008935177
0.01155908584
-0.002130527905
0.01168594735
-0.00211683056
0.01132076382
-0.002033980161
0.01062146779
-0.001950150405
0.00964657921
-0.001929545794
0.008386279184
-0.002036760924
0.006802170741
-0.002332143856
0.004833155814
-0.002866149333
0.002407709512
-0.003666252788
-0.0005505985908
-0.004708324097
-0.004120996322
-0.005868100925
-0.008353996311
-0.006833601433
-0.01319989976
-0.007033936267
-0.01824731645
-0.005724788936
-0.022190792
-0.00274151404
-0.02168212327
-0.01175691924
-0.000834397524
0.004738233975
-0.001615893385
0.009093965514
-0.001971405359
0.01097868853
-0.001869375781
0.01145705627
-0.001424082971
0.01124065449
-0.0007638492966
0.01066052974
-3.263778707e-06
0.009860883015
0.000763320863
0.008879993872
0.001441944887
0.007707655629
0.001946318835
0.006297796779
0.002189074666
0.004590399839
0.002082604216
0.002514179716
0.001540947518
-8.941981138e-06
0.0005076000166
-0.003087649129
-0.001016410441
-0.006829986116
-0.002854343304
-0.01136196715
-0.00447817576
-0.01662348425
-0.004820776976
-0.02184819069
-0.002947363899
-0.02355553641
-0.01470428318
-0.001468507449
0.006206741525
-0.002389367748
0.01001482596
-0.002391792883
0.01098111386
-0.001631305633
0.01069656908
-0.000386111756
0.009995460657
0.0011202137
0.009154204321
0.002724016257
0.008257079973
0.004299116665
0.007304893629
0.005741208696
0.006265563709
0.006949598673
0.005089406801
0.007820506622
0.003719491854
0.008241495783
0.002093190552
0.008088573379
0.0001439801464
0.007233942678
-0.002233018447
0.005559462517
-0.005155506026
0.003053310851
-0.008855815748
6.557210623e-05
-0.01363574531
-0.002454837354
-0.01932778164
-0.002604317774
-0.02340605582
-0.01730860101
-0.002366644488
0.008573386154
-0.00296902368
0.0106172052
-0.001934603847
0.009946694261
6.143885859e-05
0.008700526394
0.002507512052
0.00754938721
0.005106234204
0.006555482709
0.00768099052
0.005682323634
0.01011317114
0.004872712948
0.01230778087
0.004070953907
0.0141719722
0.003225215379
0.01560397056
0.002287493307
0.01648569748
0.001211463465
0.01666955988
-3.988222796e-05
0.01600463053
-0.001568089202
0.01428705577
-0.003437931271
0.01131860975
-0.005887369698
0.007044292877
-0.009361428587
0.002194634663
-0.01447812335
-0.001030362996
-0.02018105805
-0.01833896388
-0.002149579665
0.01072296614
-7.200884724e-05
0.008539634307
0.003738884952
0.006135800438
0.007711800988
0.004727610265
0.01154796093
0.003713226876
0.01512135721
0.002982086464
0.01837457358
0.002429107324
0.02127422995
0.001973056692
0.02378403692
0.001561147139
0.02585219297
0.001157059595
0.02740549193
0.0007341946601
0.02834320907
0.0002737465452
0.02855885546
-0.0002555285887
0.02787501725
-0.0008842509695
0.02609030526
-0.001653219407
0.0229019059
-0.002698970142
0.01790218734
-0.004361710052
0.01076374776
-0.007339683812
0.002910810561
-0.0123281208
-0.01542815329
0.01072296636
0.01926260072
0.0253984012
0.03012601151
0.03383923827
0.03682132471
0.03925043205
0.04122348877
0.04278463598
0.04394169565
0.04467589037
0.04494963701
0.0446941085
0.04380985752
0.04215663797
0.03945766787
0.03509595788
0.02775627408
0.01542815332
)
;

boundaryField
{
    movingWall
    {
        type            calculated;
        value           uniform 0;
    }
    fixedWalls
    {
        type            calculated;
        value           uniform 0;
    }
    frontAndBack
    {
        type            empty;
    }
}


// ************************************************************************* //
