/*--------------------------------*- C++ -*----------------------------------*\
  =========                 |
  \\      /  F ield         | OpenFOAM: The Open Source CFD Toolbox
   \\    /   O peration     | Website:  https://openfoam.org
    \\  /    A nd           | Version:  13
     \\/     M anipulation  |
\*---------------------------------------------------------------------------*/
FoamFile
{
    format      ascii;
    class       volVectorField;
    location    "13";
    object      U_0;
}
// * * * * * * * * * * * * * * * * * * * * * * * * * * * * * * * * * * * * * //

dimensions      [0 1 -1 0 0 0 0];

internalField   nonuniform List<vector> 
400
(
(0.0001110107907 -0.0001130469601 0)
(-0.0002212862488 7.575522046e-05 0)
(-0.001405142539 0.000268906293 0)
(-0.00325130375 0.0003929488203 0)
(-0.005478375241 0.000455613207 0)
(-0.007838943929 0.0004722979232 0)
(-0.01013163689 0.0004519818605 0)
(-0.01217901757 0.0003965915451 0)
(-0.01381051696 0.0003041527327 0)
(-0.01485925536 0.000173354395 0)
(-0.01517491623 8.182991055e-06 0)
(-0.01465127813 -0.0001785184975 0)
(-0.01326252529 -0.0003633347419 0)
(-0.01109833146 -0.0005141039735 0)
(-0.008384556913 -0.0005956744378 0)
(-0.005475565193 -0.0005792630365 0)
(-0.002809009871 -0.0004530260629 0)
(-0.0008208663891 -0.0002310119603 0)
(0.0001880113174 3.363751248e-05 0)
(0.0002067349354 0.0002023872113 0)
(-8.297981649e-05 0.0002172813675 0)
(-0.001730497667 0.001654192117 0)
(-0.005233466756 0.003092812517 0)
(-0.01011717478 0.004061228495 0)
(-0.01578710701 0.004540417722 0)
(-0.02170165293 0.004596752392 0)
(-0.02738569107 0.004286084025 0)
(-0.03240441174 0.00363464881 0)
(-0.03634357955 0.002652661313 0)
(-0.03881328817 0.001361066564 0)
(-0.03948067861 -0.0001797493209 0)
(-0.03812823663 -0.001848157861 0)
(-0.03472650551 -0.003453906656 0)
(-0.0295013708 -0.004753151335 0)
(-0.02297003678 -0.005489684602 0)
(-0.01591919425 -0.005459873001 0)
(-0.009305510003 -0.004588891984 0)
(-0.004072844226 -0.003002070647 0)
(-0.0008978541395 -0.001094213635 0)
(9.770838084e-05 0.0002307375815 0)
(-0.0003173844375 0.001498651844 0)
(-0.003527315502 0.005264375626 0)
(-0.009320487279 0.008560835261 0)
(-0.01690300623 0.0107455466 0)
(-0.02544087172 0.01179075774 0)
(-0.03420834063 0.01181266999 0)
(-0.04255598918 0.01091682252 0)
(-0.04987893199 0.009162857504 0)
(-0.0556013066 0.006591101128 0)
(-0.05918804682 0.003276574882 0)
(-0.06018872081 -0.0006127867753 0)
(-0.05831020528 -0.004772627712 0)
(-0.05350583918 -0.008750467784 0)
(-0.04606064836 -0.01198023619 0)
(-0.03664392494 -0.01387345283 0)
(-0.02629467887 -0.01396347882 0)
(-0.01630868616 -0.0120786872 0)
(-0.008012701677 -0.008501850875 0)
(-0.00246094499 -0.004081251078 0)
(-7.302715989e-05 -0.0005042510615 0)
(-0.000524362876 0.003717866205 0)
(-0.005210126353 0.01084768895 0)
(-0.01317224769 0.01649599191 0)
(-0.02324135376 0.02011516371 0)
(-0.03434488177 0.02175959496 0)
(-0.04561739972 0.02162721955 0)
(-0.0562986832 0.01988428478 0)
(-0.0656779483 0.01662955516 0)
(-0.0730719666 0.01194055863 0)
(-0.0778364126 0.005958530459 0)
(-0.07941201806 -0.001020782462 0)
(-0.07740375608 -0.008478004718 0)
(-0.07168399595 -0.01564786354 0)
(-0.06250291345 -0.02156812122 0)
(-0.05057769423 -0.02521977663 0)
(-0.03711763267 -0.02576229146 0)
(-0.02373411597 -0.02283243382 0)
(-0.01219624401 -0.01682795906 0)
(-0.004062462878 -0.009069814557 0)
(-0.0002209718218 -0.002043255743 0)
(-0.0007026438227 0.006777219294 0)
(-0.006730165833 0.01824166393 0)
(-0.01670490197 0.02668442182 0)
(-0.0290837219 0.03189823365 0)
(-0.04256382683 0.03414163276 0)
(-0.05616820406 0.03375070346 0)
(-0.06906952612 0.03097195275 0)
(-0.08049741317 0.02594405579 0)
(-0.08969759446 0.01877301133 0)
(-0.09593170815 0.009652994405 0)
(-0.09851629292 -0.001005399999 0)
(-0.09690233891 -0.01247200759 0)
(-0.09079310209 -0.02365057883 0)
(-0.08029137447 -0.03312396693 0)
(-0.06605150174 -0.03932923121 0)
(-0.04938492583 -0.0408875491 0)
(-0.03223936845 -0.03706516212 0)
(-0.01696083672 -0.02824950421 0)
(-0.005818533523 -0.01622523051 0)
(-0.0003622611904 -0.004389997647 0)
(-0.0008569442159 0.01058473239 0)
(-0.008097551054 0.02728543671 0)
(-0.01991594153 0.03895170418 0)
(-0.03443191043 0.04592319888 0)
(-0.05013490581 0.04878870178 0)
(-0.06596592443 0.04809190772 0)
(-0.08106840465 0.04418595717 0)
(-0.09465147301 0.03724617338 0)
(-0.1059200038 0.02738284865 0)
(-0.1140520889 0.01480377206 0)
(-0.1182207453 -1.294659471e-05 0)
(-0.1176660625 -0.01616848561 0)
(-0.1118246929 -0.03224995702 0)
(-0.1005204581 -0.0463407059 0)
(-0.08420209368 -0.05619871324 0)
(-0.06417503422 -0.05967037992 0)
(-0.04271665011 -0.05535467388 0)
(-0.02290278719 -0.04338535263 0)
(-0.008005888695 -0.02596918103 0)
(-0.0005339456069 -0.007658233573 0)
(-0.0009889009692 0.01506420302 0)
(-0.009319223769 0.03782252997 0)
(-0.02279434411 0.05312180481 0)
(-0.03924982239 0.06202644399 0)
(-0.05699654475 0.06557811217 0)
(-0.07492745352 0.06460265611 0)
(-0.09219556682 0.05958986491 0)
(-0.1080298375 0.05074508701 0)
(-0.1216292752 0.03814608519 0)
(-0.132109274 0.02195219623 0)
(-0.1384956855 0.00262905203 0)
(-0.1397779904 -0.01883881403 0)
(-0.135039305 -0.04077972143 0)
(-0.1236835949 -0.06076700567 0)
(-0.1057674636 -0.07574611236 0)
(-0.08239930396 -0.08249010753 0)
(-0.0560806693 -0.07848840765 0)
(-0.03072145389 -0.06318603823 0)
(-0.01097444389 -0.03905601905 0)
(-0.0007805693889 -0.01213157657 0)
(-0.001097161151 0.02014250154 0)
(-0.01038677977 0.04968251247 0)
(-0.02529596022 0.06898599687 0)
(-0.04343338082 0.07999593794 0)
(-0.06295904706 0.08432735123 0)
(-0.08275345257 0.08316646531 0)
(-0.102020413 0.07717363895 0)
(-0.1200547264 0.06657782969 0)
(-0.1360971993 0.05138130649 0)
(-0.149244249 0.03161800105 0)
(-0.1584051026 0.00763446401 0)
(-0.1623211522 -0.01962374748 0)
(-0.1596749367 -0.04834184103 0)
(-0.1493275452 -0.07564044296 0)
(-0.1307255375 -0.09757146359 0)
(-0.1044844287 -0.1095212453 0)
(-0.07305252891 -0.107278554 0)
(-0.04112098288 -0.08887104934 0)
(-0.01512802067 -0.05659954036 0)
(-0.001156732322 -0.01828940529 0)
(-0.001180135976 0.02574066421 0)
(-0.01128528657 0.06266454725 0)
(-0.02735491146 0.08627522337 0)
(-0.04682300722 0.09952315879 0)
(-0.06771817801 0.1047196523 0)
(-0.08894221321 0.1034960859 0)
(-0.1097922669 0.09672465441 0)
(-0.1296814212 0.08465821395 0)
(-0.1479558823 0.06718494822 0)
(-0.1637673082 0.04413510619 0)
(-0.1759876092 0.01561608625 0)
(-0.183178718 -0.01762474176 0)
(-0.1836512066 -0.05381179881 0)
(-0.1756641195 -0.08977497178 0)
(-0.1578497959 -0.1207167916 0)
(-0.1299487956 -0.1404057367 0)
(-0.09385547673 -0.1422514779 0)
(-0.05468164785 -0.1217561357 0)
(-0.02091927441 -0.0800568352 0)
(-0.00173466464 -0.02683543899 0)
(-0.001241307599 0.03177533664 0)
(-0.01201732861 0.07653390299 0)
(-0.02892292548 0.1046413236 0)
(-0.04925359661 0.1201613924 0)
(-0.0709138523 0.1262351022 0)
(-0.09285753143 0.1250353088 0)
(-0.1145181734 0.1176993 0)
(-0.1354842725 0.104518595 0)
(-0.1552848886 0.08524607622 0)
(-0.1732312594 0.05944717266 0)
(-0.1882901631 0.02687892823 0)
(-0.1989930971 -0.01208304208 0)
(-0.2034154993 -0.0559470317 0)
(-0.1992748125 -0.1015397389 0)
(-0.1842768842 -0.1434614226 0)
(-0.1568980767 -0.1738589067 0)
(-0.1177733441 -0.1831669526 0)
(-0.07162535239 -0.1628964627 0)
(-0.02882219186 -0.1111319504 0)
(-0.002615192318 -0.03873180653 0)
(-0.001297987091 0.03817817068 0)
(-0.01264387202 0.09104246686 0)
(-0.03003587687 0.1236559725 0)
(-0.05063950738 0.1412967877 0)
(-0.07223227138 0.1480943591 0)
(-0.09385362118 0.1468765673 0)
(-0.1151201163 0.1391136292 0)
(-0.1358554715 0.125170409 0)
(-0.1558556182 0.1046724001 0)
(-0.1747138206 0.07689604607 0)
(-0.191663894 0.04117421154 0)
(-0.2054322473 -0.002644890858 0)
(-0.2141136598 -0.05362734122 0)
(-0.21510847 -0.1089996423 0)
(-0.205275011 -0.1632585062 0)
(-0.1815714692 -0.2073124843 0)
(-0.1425992797 -0.2283985063 0)
(-0.0914120023 -0.2124713259 0)
(-0.03923448343 -0.1515154187 0)
(-0.003941233387 -0.05522608 0)
(-0.001395498848 0.04494500951 0)
(-0.01334659048 0.1059851875 0)
(-0.03090673088 0.1428344825 0)
(-0.0510858818 0.1621380572 0)
(-0.07153612297 0.1692249254 0)
(-0.09143810764 0.1677126559 0)
(-0.1106529548 0.1594825153 0)
(-0.1293025045 0.145024798 0)
(-0.1475290374 0.1238787126 0)
(-0.1653251428 0.09505811877 0)
(-0.182371652 0.05746043382 0)
(-0.1978533164 0.01031433359 0)
(-0.2102271399 -0.04623757425 0)
(-0.216976484 -0.110290049 0)
(-0.214463575 -0.1769637888 0)
(-0.1981894509 -0.2368040974 0)
(-0.1641409315 -0.2743492173 0)
(-0.1121684343 -0.2689112392 0)
(-0.05223948924 -0.2023337282 0)
(-0.005910996149 -0.07783753059 0)
(-0.001631142642 0.05223353118 0)
(-0.01451966015 0.12130268 0)
(-0.0320394564 0.1616823057 0)
(-0.05100127456 0.181719858 0)
(-0.068978699 0.1882510426 0)
(-0.08541181297 0.1858346692 0)
(-0.1005053999 0.1768333523 0)
(-0.1147503627 0.161915468 0)
(-0.1286988938 0.1405974245 0)
(-0.1428269774 0.111706352 0)
(-0.1573979695 0.07377151327 0)
(-0.1722787668 0.02541671642 0)
(-0.1866550648 -0.03413100065 0)
(-0.1986198545 -0.1042380328 0)
(-0.2046719624 -0.1814794123 0)
(-0.1993885326 -0.257372177 0)
(-0.1760875209 -0.3152444872 0)
(-0.1301014255 -0.3279670692 0)
(-0.06715119322 -0.2631877103 0)
(-0.00877772886 -0.1082259221 0)
(-0.002196313819 0.06053626933 0)
(-0.01690110357 0.1372311634 0)
(-0.03434065577 0.1797391014 0)
(-0.05114518452 0.1988894413 0)
(-0.06499512285 0.2034843029 0)
(-0.07584069618 0.1991642531 0)
(-0.08439861493 0.1887942827 0)
(-0.09161519077 0.1732386127 0)
(-0.09849112349 0.1520470844 0)
(-0.1060095368 0.1239623236 0)
(-0.1150599458 0.08728145912 0)
(-0.1263050274 0.04016128331 0)
(-0.1399206903 -0.01902850436 0)
(-0.1551175959 -0.09109895354 0)
(-0.1693608357 -0.1747733429 0)
(-0.1773560606 -0.264097701 0)
(-0.1705256465 -0.3436797874 0)
(-0.139200994 -0.382181023 0)
(-0.08181704064 -0.3308090401 0)
(-0.01278034868 -0.1477905412 0)
(-0.003434179343 0.07095338792 0)
(-0.02173095799 0.1544688286 0)
(-0.03913014423 0.1965405857 0)
(-0.0524129136 0.2121910863 0)
(-0.05989196857 0.2128408745 0)
(-0.06251701144 0.2052561599 0)
(-0.06178085111 0.1927003126 0)
(-0.0591858463 0.1761633889 0)
(-0.0561866382 0.1552336732 0)
(-0.05422568187 0.1286571645 0)
(-0.05474721709 0.0946579363 0)
(-0.0591561863 0.05116428504 0)
(-0.06866575624 -0.004040258834 0)
(-0.08389596671 -0.07302557816 0)
(-0.1040446761 -0.1569088598 0)
(-0.1253516102 -0.2535761785 0)
(-0.1390809146 -0.3520224581 0)
(-0.1314845883 -0.4212806468 0)
(-0.09178086678 -0.3977654196 0)
(-0.01784549642 -0.1968529142 0)
(-0.005827538817 0.08566429017 0)
(-0.03075689903 0.1742383072 0)
(-0.04762850291 0.2112159846 0)
(-0.05468436552 0.2193679574 0)
(-0.05220518356 0.2134542492 0)
(-0.04300971667 0.2010841528 0)
(-0.02970198282 0.185562562 0)
(-0.01440858866 0.1677841135 0)
(0.00102432019 0.1472881584 0)
(0.01482420396 0.1228418587 0)
(0.02517293215 0.09274800603 0)
(0.03013833227 0.05495678071 0)
(0.02767670511 0.007073894541 0)
(0.01584902751 -0.05368191119 0)
(-0.006607975355 -0.1303672092 0)
(-0.03873797051 -0.2251227984 0)
(-0.0741312314 -0.3341919899 0)
(-0.09764443684 -0.4335735301 0)
(-0.08954432403 -0.4520779374 0)
(-0.02290072637 -0.2538134357 0)
(-0.009906643296 0.1094571743 0)
(-0.04535987016 0.1979757096 0)
(-0.05823645872 0.2210463664 0)
(-0.05237559785 0.215939245 0)
(-0.03336944677 0.2006600285 0)
(-0.007075574574 0.1824652094 0)
(0.02270082981 0.1638714143 0)
(0.05340044847 0.1452398061 0)
(0.08304012977 0.1258581461 0)
(0.1098185435 0.1044751482 0)
(0.1318424766 0.07956093343 0)
(0.1469705875 0.04929293502 0)
(0.1527250996 0.01148649975 0)
(0.1463044664 -0.03664481667 0)
(0.1247542567 -0.09897618313 0)
(0.08579350312 -0.1808610573 0)
(0.03101436158 -0.287008591 0)
(-0.0274759939 -0.4075115626 0)
(-0.06438963159 -0.4776943761 0)
(-0.02510627087 -0.3146583186 0)
(-0.01744366595 0.1529660039 0)
(-0.06172284968 0.2242848295 0)
(-0.05467487458 0.2163933808 0)
(-0.01973821403 0.1917471625 0)
(0.02646986331 0.166496745 0)
(0.07585772841 0.1438582353 0)
(0.1248212912 0.1241473503 0)
(0.1713893679 0.1066681297 0)
(0.2141886565 0.09025464639 0)
(0.2519572238 0.07361512522 0)
(0.2831746126 0.0554848204 0)
(0.305924331 0.03443358577 0)
(0.3177663178 0.008763035277 0)
(0.3156668239 -0.02371433238 0)
(0.2958772304 -0.06633356225 0)
(0.2536587138 -0.1251894578 0)
(0.1846392045 -0.2114072757 0)
(0.09170278022 -0.3336397039 0)
(-0.002284473302 -0.4527725553 0)
(-0.01723969535 -0.3642326206 0)
(-0.02366958613 0.2092264687 0)
(-0.03707726633 0.2317489136 0)
(0.03797619106 0.1769944346 0)
(0.1245837929 0.1362985308 0)
(0.2033784976 0.1075210776 0)
(0.2731595103 0.08599674875 0)
(0.3347932445 0.06964358196 0)
(0.3888680032 0.05681450562 0)
(0.4356964516 0.04604799257 0)
(0.4750726818 0.03618587579 0)
(0.5065008507 0.02625610361 0)
(0.5290823 0.01528689344 0)
(0.5408628289 0.002296364477 0)
(0.5390978561 -0.01394935418 0)
(0.5197810039 -0.03563215976 0)
(0.4772227634 -0.06675932974 0)
(0.4030460406 -0.1174559489 0)
(0.2850520304 -0.2087323165 0)
(0.1293634128 -0.3383600739 0)
(0.03675946047 -0.3390875175 0)
(0.2421259327 0.109395505 0)
(0.3144343484 0.09745324414 0)
(0.4459125686 0.0569329762 0)
(0.5511638464 0.03478671137 0)
(0.624985734 0.02319731333 0)
(0.67938091 0.01607722039 0)
(0.7217252177 0.01136710668 0)
(0.7554655932 0.008169689689 0)
(0.7824368187 0.005885531155 0)
(0.8036119805 0.004090633492 0)
(0.8192788922 0.002446312904 0)
(0.8291163346 0.0007002885408 0)
(0.8322409893 -0.001329163864 0)
(0.8271795348 -0.003793410741 0)
(0.811486929 -0.00701631327 0)
(0.780924292 -0.01175250685 0)
(0.726626552 -0.02014370626 0)
(0.6311347864 -0.03715718703 0)
(0.4596596452 -0.08568774262 0)
(0.3045210868 -0.1257659325 0)
)
;

boundaryField
{
    movingWall
    {
        type            calculated;
        value           uniform (1 0 0);
    }
    fixedWalls
    {
        type            calculated;
        value           uniform (0 0 0);
    }
    frontAndBack
    {
        type            empty;
    }
}


// ************************************************************************* //
