/*--------------------------------*- C++ -*----------------------------------*\
  =========                 |
  \\      /  F ield         | OpenFOAM: The Open Source CFD Toolbox
   \\    /   O peration     | Website:  https://openfoam.org
    \\  /    A nd           | Version:  13
     \\/     M anipulation  |
\*---------------------------------------------------------------------------*/
FoamFile
{
    format      ascii;
    class       vectorField;
    location    "13";
    object      U_all;
}
// * * * * * * * * * * * * * * * * * * * * * * * * * * * * * * * * * * * * * //


400
(
(1.007859287e-05 -3.603857801e-05 0)
(-0.0006636257301 0.0004113608054 -1.535843841e-23)
(-0.002171381776 0.000914177221 0)
(-0.004019003753 0.001302973982 0)
(-0.005927582495 0.001523218372 6.651187535e-25)
(-0.007704611155 0.001557679175 4.130440476e-24)
(-0.009215559297 0.001412709232 -6.670471205e-24)
(-0.01036025888 0.001111528082 8.290208571e-24)
(-0.01105923553 0.0006914306105 -2.162610711e-25)
(-0.01125268483 0.0002022407708 -4.101636995e-24)
(-0.01090542939 -0.0002975623723 5.928634788e-24)
(-0.01001834746 -0.0007423058397 -6.038170154e-23)
(-0.008641233978 -0.001069214287 -6.678996935e-23)
(-0.006880760877 -0.001227180058 -7.926335633e-23)
(-0.004904306239 -0.001188763729 4.674365559e-24)
(-0.002933349015 -0.000961072266 -4.255457025e-24)
(-0.001219165194 -0.0005936042591 -2.086630919e-22)
(-3.406850567e-05 -0.0001746384451 0)
(0.0005074313658 0.0001663147762 1.944663062e-25)
(0.0002200100228 0.0003021824333 -8.286833554e-24)
(-0.0002612882619 0.0008254541693 1.364196542e-25)
(-0.002681356033 0.003358547063 1.545543357e-23)
(-0.006848459101 0.005558419808 1.533634451e-25)
(-0.01184906861 0.006949113346 -8.264250231e-25)
(-0.01698697997 0.007490393295 1.124011469e-24)
(-0.02178742927 0.007234723749 1.245375926e-23)
(-0.02589186872 0.006273289901 2.022549954e-24)
(-0.02902740063 0.004721733254 -8.024409148e-24)
(-0.03098239024 0.002723977421 1.057160141e-23)
(-0.03160522535 0.0004590930271 4.633228646e-24)
(-0.03081143387 -0.001858774759 -6.455477069e-24)
(-0.02860881061 -0.003983470762 2.888190497e-24)
(-0.025126749 -0.005660967854 3.954866631e-23)
(-0.02063071807 -0.006659728103 -2.007176487e-24)
(-0.01553051862 -0.006813736068 3.867920775e-24)
(-0.01036177741 -0.00607054839 -1.018691837e-22)
(-0.005731979446 -0.004536139195 1.010556015e-22)
(-0.002246496732 -0.002513196913 -4.823294927e-25)
(-0.0001937998709 -0.0005181177395 4.944957983e-25)
(8.165576336e-05 0.0005974362325 0)
(-0.0004144707145 0.00291248706 -2.866727146e-25)
(-0.004603795392 0.00872796363 1.66047004e-23)
(-0.01126437977 0.01312237215 -8.299297837e-24)
(-0.01914599833 0.01565114848 -1.996728851e-25)
(-0.02721991286 0.01638556881 1.961591372e-25)
(-0.03479911944 0.01551359034 2.398971097e-26)
(-0.04134450176 0.01325673454 -1.832560124e-24)
(-0.04643462582 0.009854327367 -4.981666803e-25)
(-0.04973714317 0.005580723524 -1.106987589e-23)
(-0.05100798518 0.0007677400145 0)
(-0.05010177608 -0.004177915042 0)
(-0.04700689215 -0.008791213205 2.736503482e-23)
(-0.04188749501 -0.01256626895 2.882634824e-23)
(-0.0351078399 -0.01501627454 -1.703430144e-24)
(-0.02724890713 -0.01575374136 5.058123156e-23)
(-0.01908775515 -0.01459079147 9.852231981e-23)
(-0.01152439677 -0.01164577617 4.494518518e-23)
(-0.005457256566 -0.007438803539 5.895498427e-25)
(-0.001454656603 -0.002950598237 1.432139491e-26)
(-9.077644374e-05 0.0002076037944 0)
(-0.0004966877489 0.005992048303 -4.155922781e-23)
(-0.006338539665 0.0162203274 -1.650385687e-23)
(-0.0153822159 0.02334160284 8.223956003e-24)
(-0.02602541042 0.02719145103 0)
(-0.0369350449 0.02807088452 0)
(-0.04725078239 0.02636532641 0)
(-0.05628831019 0.02245848301 -6.883296441e-26)
(-0.06349980608 0.01672866728 -1.613462103e-24)
(-0.06843655034 0.009588846731 0)
(-0.07074070922 0.001533432994 1.807352816e-24)
(-0.07017274624 -0.006825373557 2.915976006e-25)
(-0.06664797977 -0.01476330489 -2.924141277e-25)
(-0.06028772531 -0.02146405097 0)
(-0.05147868385 -0.02610037411 4.341268426e-23)
(-0.04090755416 -0.02795825098 -4.888142013e-23)
(-0.02955953243 -0.02660828405 -3.027064761e-23)
(-0.01864689217 -0.02210423591 -4.488574072e-23)
(-0.00944876661 -0.01516836874 7.7241001e-25)
(-0.002968211371 -0.007297252162 9.10081922e-23)
(-0.000230783536 -0.0008839322796 0)
(-0.0005255229571 0.01000079397 4.176174844e-23)
(-0.007904115346 0.02570746396 4.811513057e-25)
(-0.01920845981 0.03608859411 -4.701637814e-25)
(-0.03251232335 0.04147359784 0)
(-0.04621537386 0.04251929909 7.616990828e-25)
(-0.05931440443 0.0398702795 -7.511388112e-25)
(-0.07100987101 0.0340922025 3.564404035e-23)
(-0.0806454768 0.02569769815 1.727455388e-23)
(-0.08765385218 0.01522185268 5.807115742e-24)
(-0.09154240805 0.003304539721 -1.809458717e-24)
(-0.09192030705 -0.009247426948 0)
(-0.0885471624 -0.02142989584 4.679038371e-25)
(-0.08140898353 -0.03206387463 1.129948542e-23)
(-0.07081244693 -0.0398825916 -4.571492298e-23)
(-0.05746769185 -0.04370021379 2.086588169e-24)
(-0.04253790354 -0.04267289764 4.76445788e-23)
(-0.02760199256 -0.03663121415 -4.73989429e-25)
(-0.0144748506 -0.02641210963 0)
(-0.004835895795 -0.01404917331 5.369848289e-23)
(-0.0003615701306 -0.002856020161 -2.48153934e-22)
(-0.0005218070587 0.01485720665 9.827823479e-23)
(-0.009290165072 0.0370380156 -4.918025444e-25)
(-0.02267263223 0.05122453186 0)
(-0.0384839796 0.05841439424 0)
(-0.05490587678 0.05974187612 -8.634081284e-23)
(-0.07082813604 0.05616919434 -8.37057707e-23)
(-0.08536812269 0.04845406648 -3.948078377e-23)
(-0.09778178511 0.03722059241 -1.436560662e-23)
(-0.1073847174 0.02308345537 -4.984111789e-24)
(-0.1135250323 0.006778771207 -7.841726832e-24)
(-0.1156062967 -0.01072709284 6.223618729e-24)
(-0.1131456318 -0.02816711463 8.095152485e-24)
(-0.1058771929 -0.04396209306 -1.855425643e-23)
(-0.09389532828 -0.05629836875 1.457010835e-24)
(-0.07781068573 -0.06332715276 0)
(-0.05889340737 -0.06352572229 -1.872190545e-23)
(-0.03912307139 -0.05621751783 7.68367509e-26)
(-0.02102768277 -0.04215270986 0)
(-0.007279491444 -0.02389302525 -1.444285397e-22)
(-0.0005176072305 -0.005918567136 5.879486097e-22)
(-0.0004951840986 0.02045332031 -9.760698239e-23)
(-0.01044215253 0.04999046426 2.814777278e-22)
(-0.02561869311 0.06850538253 1.516397479e-22)
(-0.04366972526 0.07781508977 3.584846552e-24)
(-0.06261698316 0.07963867679 -7.249750587e-23)
(-0.08128837973 0.07530719396 8.905486368e-23)
(-0.0987579873 0.06577197216 -3.532800974e-24)
(-0.114225167 0.0517311067 -1.687413455e-24)
(-0.1269050925 0.03381382157 2.459119372e-24)
(-0.1359809807 0.01277243174 7.072413804e-24)
(-0.1406153048 -0.01034668947 -6.1420211e-24)
(-0.1400088067 -0.03406960799 -8.981829719e-24)
(-0.1335261244 -0.05642053177 -3.223295812e-23)
(-0.1208897997 -0.07495344817 -3.117587751e-23)
(-0.10242709 -0.08694374558 4.528271857e-25)
(-0.07935371089 -0.08983315535 0)
(-0.05399148952 -0.08198362547 0)
(-0.02972036932 -0.0636573688 -2.774050231e-24)
(-0.01060794549 -0.03782518515 2.835570654e-24)
(-0.0007298434234 -0.01046942705 1.018178301e-22)
(-0.0004462517075 0.02663258452 0)
(-0.01127203523 0.06423823293 1.985833593e-22)
(-0.02782524628 0.08754208058 8.889395503e-23)
(-0.04767613989 0.09930383842 0)
(-0.06875222093 0.1019165309 1.553456091e-22)
(-0.08987009249 0.09712468323 0)
(-0.1101087202 0.08607172108 -1.408655299e-22)
(-0.1286575027 0.06948640615 6.410741571e-24)
(-0.1446733376 0.04793422609 0)
(-0.1572054922 0.02207892149 0)
(-0.1651841503 -0.007072455214 -1.336801847e-24)
(-0.1674640196 -0.03794655691 -8.936487469e-25)
(-0.1629542777 -0.06825154708 1.441860553e-22)
(-0.1508447956 -0.0948934869 -4.652401973e-23)
(-0.1309378767 -0.1140966528 -2.415804597e-24)
(-0.1041060607 -0.1218606012 1.398610722e-24)
(-0.0727759882 -0.114937931 -1.420672261e-24)
(-0.04116807132 -0.09237831642 0)
(-0.01518270512 -0.057153984 3.123185906e-24)
(-0.001037840273 -0.01708291456 -9.913636965e-22)
(-0.0003755762963 0.03318416866 0)
(-0.01169280895 0.07933190983 -1.121317426e-22)
(-0.02905876872 0.1077714173 -6.145731184e-22)
(-0.05005998667 0.122282623 -3.724711731e-22)
(-0.07259485055 0.1260032095 0)
(-0.0955193045 0.1211337109 4.075191297e-22)
(-0.1179710676 0.10901462 1.243486514e-22)
(-0.1391921728 0.09037063428 -5.497018273e-24)
(-0.1583545762 0.06562979289 5.469811278e-24)
(-0.1744540565 0.03525632726 0)
(-0.1862582338 7.300691657e-05 2.865254309e-23)
(-0.192331674 -0.03842627615 4.593302119e-24)
(-0.191125321 -0.07779831057 -1.047361894e-22)
(-0.181180059 -0.1144196072 7.730843966e-23)
(-0.1615191402 -0.1434219538 -2.354153962e-22)
(-0.1322615679 -0.1590151434 0)
(-0.09545028416 -0.1555523246 0)
(-0.05581669975 -0.1297064389 0)
(-0.02139730282 -0.08345459405 0)
(-0.001492732084 -0.02655066817 5.460420049e-22)
(-0.0002915370988 0.03985683754 0)
(-0.01166477672 0.09471898285 -3.468148135e-22)
(-0.02915849718 0.1284594136 8.868280121e-22)
(-0.05044965958 0.1459019034 3.587644713e-22)
(-0.07346336287 0.1509851818 0)
(-0.09714229407 0.1464123854 -3.82121901e-22)
(-0.1207385283 0.1337430941 -3.1381605e-23)
(-0.1436205181 0.1136883482 3.295215696e-22)
(-0.1650747663 0.086492071 1.748343346e-22)
(-0.1841714583 0.0523275644 -4.010544878e-23)
(-0.1996755344 0.0116858033 1.645612415e-23)
(-0.2100083982 -0.03423601581 -8.133342809e-24)
(-0.2132750421 -0.08310846854 3.324639171e-22)
(-0.2073895686 -0.1310774419 0)
(-0.1904167297 -0.172383979 2.355291159e-22)
(-0.1612705153 -0.1993366556 5.57879261e-24)
(-0.1208743046 -0.2031412764 -5.661988775e-24)
(-0.07365615748 -0.1764951262 1.486946452e-22)
(-0.02963123577 -0.1184022192 -5.254234092e-24)
(-0.002170874989 -0.03990380253 0)
(-0.0002188139426 0.04640544435 0)
(-0.011255488 0.1098094465 0)
(-0.0281475144 0.1487509665 -4.987038282e-22)
(-0.04870751916 0.1690811478 -1.86738329e-23)
(-0.07092940853 0.1755955286 2.02049056e-23)
(-0.09389135333 0.171557028 -1.996634231e-23)
(-0.1170170057 0.1587901151 -2.29290903e-23)
(-0.1398794432 0.1380196962 -2.995114771e-22)
(-0.1619926486 0.1093058769 6.66520956e-23)
(-0.1826603971 0.07248833801 4.457439443e-23)
(-0.2008535138 0.02761467608 -4.51951215e-23)
(-0.2150974937 -0.02461911121 0)
(-0.2234175078 -0.08234521082 -7.641216351e-23)
(-0.2233047642 -0.1419490786 0)
(-0.2118848473 -0.1973027215 -3.691804677e-22)
(-0.1865425823 -0.2391419048 5.16147812e-22)
(-0.1462482933 -0.2551558761 0)
(-0.09379164501 -0.2323183452 -1.434315885e-22)
(-0.04013902168 -0.1634074928 1.875931963e-22)
(-0.003191874295 -0.0584134785 -3.350191419e-22)
(-0.0002111496395 0.05267822509 0)
(-0.0107146777 0.1240954597 9.127229182e-22)
(-0.02636000244 0.1677716951 -2.425036791e-23)
(-0.04510942121 0.1905838469 9.13447799e-22)
(-0.06505946388 0.1982704529 -2.494156233e-23)
(-0.08549300307 0.1947273732 2.814960527e-23)
(-0.1060733979 0.1821103767 -2.789264554e-23)
(-0.1266567223 0.1612213133 -1.64574361e-23)
(-0.147089421 0.1319899671 -5.212644562e-22)
(-0.1670599812 0.0939498505 -8.824659118e-24)
(-0.1859610702 0.04667250866 9.57282387e-24)
(-0.202712047 -0.009792111054 3.287671659e-22)
(-0.2156303998 -0.07440619309 -5.76936972e-22)
(-0.2221905165 -0.14432273 0)
(-0.2189057921 -0.2138747484 8.795765463e-22)
(-0.2016509269 -0.2731332493 -4.862436342e-22)
(-0.1668217965 -0.3066909378 -1.547315167e-23)
(-0.1139468246 -0.2945584797 0)
(-0.05282527573 -0.2189681835 -1.829604793e-22)
(-0.004740387125 -0.0835341589 3.300315353e-22)
(-0.0003756616717 0.05875928181 1.541804445e-23)
(-0.01057275278 0.137327786 -8.711106868e-22)
(-0.02457198809 0.1847756045 -1.150870801e-21)
(-0.04050026859 0.2091390517 -8.573769618e-22)
(-0.05660523113 0.2172714359 0)
(-0.07250351124 0.21379206 3.4884093e-23)
(-0.08819889373 0.2012558219 -7.240995154e-23)
(-0.1039120388 0.1806166958 5.823525569e-23)
(-0.119899367 0.1517593045 2.9961768e-22)
(-0.1363308007 0.1140001665 -1.119723476e-23)
(-0.1531690815 0.06649022079 0)
(-0.1700141429 0.008601420557 -3.575896699e-22)
(-0.1858118602 -0.05962576973 7.466696978e-22)
(-0.1985232198 -0.1366616876 8.782148553e-22)
(-0.204741498 -0.2182496094 -5.25027478e-22)
(-0.1993663766 -0.2952374348 5.12526925e-22)
(-0.1762027638 -0.3506306201 1.057237843e-23)
(-0.1301244619 -0.3576533167 -1.074215777e-23)
(-0.0668678697 -0.2837111473 -8.735637823e-23)
(-0.007076692724 -0.1167308812 0)
(-0.0009221240904 0.06518845955 -1.90157042e-23)
(-0.01178243293 0.1497221574 -1.320868041e-21)
(-0.02411877221 0.1992760212 1.08841466e-21)
(-0.0363657571 0.2235343221 6.703227384e-22)
(-0.04703524839 0.2307984069 5.984736846e-22)
(-0.05632686975 0.2265046473 6.608145434e-22)
(-0.06474623051 0.2136343716 -4.43052619e-23)
(-0.07297384976 0.1933355787 -3.441540057e-22)
(-0.08171907527 0.1655161212 2.13991746e-22)
(-0.09165420769 0.1293899921 0)
(-0.1033517761 0.08381647898 0)
(-0.1171518433 0.0276042721 2.643619211e-22)
(-0.1329160556 -0.04014392888 8.233457597e-23)
(-0.1496197501 -0.1194997331 -2.796517291e-22)
(-0.164725801 -0.2083935059 -5.385888031e-23)
(-0.1732536399 -0.3001342495 1.309060171e-22)
(-0.1673423699 -0.3787272968 -3.373512357e-22)
(-0.1366829429 -0.4130191441 -1.816629701e-23)
(-0.08021507837 -0.3532766272 8.723699088e-23)
(-0.01050564687 -0.1591441499 -6.065113195e-22)
(-0.00227308079 0.07334263991 0)
(-0.01592976836 0.1622250195 2.136674472e-21)
(-0.02693182693 0.2111555728 0)
(-0.03466456307 0.2326602876 -1.34615632e-21)
(-0.03818052269 0.2370541287 6.221719162e-23)
(-0.0387059635 0.2306361811 -6.15957416e-22)
(-0.03748150928 0.2167342104 -4.732636109e-22)
(-0.03575588532 0.1966539912 8.257808541e-22)
(-0.0346985906 0.1702919401 -1.874843116e-22)
(-0.03542262597 0.136860052 0)
(-0.03903170553 0.09507661993 0)
(-0.04653714294 0.04341654124 2.430472857e-23)
(-0.05874977132 -0.01971711969 -5.983692674e-22)
(-0.07592180189 -0.0957826854 -4.293026628e-22)
(-0.09713649082 -0.1851451583 4.627492671e-22)
(-0.1189099507 -0.2849543056 -6.459083163e-22)
(-0.1336883922 -0.3834178642 8.990898946e-23)
(-0.1267808437 -0.4499920147 3.170328258e-23)
(-0.08907620427 -0.4194164436 5.670160785e-22)
(-0.01527396938 -0.2109296766 6.05368378e-22)
(-0.005191738094 0.08590681085 0)
(-0.02538506839 0.176352468 1.468659877e-22)
(-0.03513324444 0.2201424164 -4.90107433e-23)
(-0.03687995014 0.2349325724 7.6145278e-22)
(-0.03083232213 0.2337800745 -6.977262587e-22)
(-0.01995599837 0.2236731709 4.726146794e-23)
(-0.006485425371 0.2079962061 -1.017432319e-22)
(0.007637818174 0.187931542 -3.373621525e-22)
(0.02082250119 0.1633655364 2.054442879e-22)
(0.03166580776 0.133449941 0)
(0.03865953746 0.09688437289 0)
(0.04030288171 0.05205791612 -2.892851418e-22)
(0.03497833277 -0.002912464102 0)
(0.02124691142 -0.070244765 -5.503496599e-22)
(-0.001913165929 -0.1522659763 -1.439494105e-23)
(-0.03364997541 -0.2503213466 2.554363595e-23)
(-0.06952856673 -0.3596699628 2.189868268e-22)
(-0.09256385773 -0.4572864595 4.830794722e-24)
(-0.08729659403 -0.4695257027 -5.800171194e-22)
(-0.02104342319 -0.2697098562 0)
(-0.01112206401 0.1085907688 0)
(-0.04259500348 0.1945845607 -8.822964323e-22)
(-0.04821750996 0.2255489565 -5.40086679e-22)
(-0.039632519 0.2278472995 4.535254772e-22)
(-0.01938328268 0.2178406414 -1.721834241e-24)
(0.006916358915 0.2024680837 -4.548434346e-23)
(0.0358363393 0.1845005306 5.674999629e-22)
(0.06492778357 0.1645510923 -2.756354621e-23)
(0.09234650447 0.1422820286 -2.06124656e-22)
(0.1164871241 0.1167148316 3.131556529e-23)
(0.1356945663 0.08659284199 -3.415908399e-23)
(0.1481839697 0.05041907359 -3.68242703e-23)
(0.1518308871 0.00642559144 3.199912605e-22)
(0.1443323106 -0.04770380203 6.110314838e-22)
(0.1229937698 -0.1150842195 -5.095483148e-22)
(0.08590517404 -0.200245535 -1.61762158e-22)
(0.03161295645 -0.3066461274 1.526958157e-22)
(-0.02389165708 -0.4238483716 7.292930077e-23)
(-0.06503292788 -0.4870077684 1.912659814e-21)
(-0.02511474741 -0.3290345147 2.954279005e-21)
(-0.02004293662 0.146108228 -4.383915631e-23)
(-0.06421285633 0.2112733231 4.411050007e-23)
(-0.050858814 0.2176116553 9.987602636e-22)
(-0.01963369857 0.2012689559 -7.933886864e-24)
(0.02370633285 0.1806705994 0)
(0.07096806118 0.160463839 4.352555116e-23)
(0.1183962371 0.1414671683 -2.266780382e-22)
(0.1637382253 0.123201027 -8.997939494e-23)
(0.2054606358 0.1047765114 3.667814836e-23)
(0.2422153035 0.08511500124 -1.69584617e-23)
(0.272520121 0.0630704183 3.419949882e-23)
(0.2946285491 0.03741589889 -6.577766968e-23)
(0.3061524525 0.006707922127 -9.283219841e-23)
(0.3045145643 -0.03071142636 1.515778318e-22)
(0.2860197885 -0.07772481543 0)
(0.2467591175 -0.139834542 1.50766715e-22)
(0.1808509624 -0.2265871606 2.558555123e-22)
(0.09586415638 -0.3443355553 0)
(-0.006789527846 -0.4551640654 -3.6744117e-21)
(-0.01923914961 -0.3777011645 -2.891920538e-21)
(-0.0259085526 0.2277202 -9.510694657e-22)
(-0.03996582283 0.2238474255 -1.387829072e-22)
(0.03654198485 0.1810359372 -2.332141681e-22)
(0.108952438 0.1450351109 -1.191440588e-22)
(0.181517819 0.1171421424 -4.292545699e-23)
(0.2486975615 0.0961705127 9.764807419e-23)
(0.3096265167 0.07993262778 -1.404834686e-22)
(0.3641444104 0.06650535104 1.293000523e-22)
(0.4121116883 0.05446818679 -8.59014376e-23)
(0.4531105855 0.04272496111 1.131268317e-25)
(0.4863045196 0.03037243154 1.523812357e-23)
(0.5103175184 0.0166011017 7.97913753e-23)
(0.5233066685 0.0006132544149 -1.808291176e-22)
(0.522911142 -0.01855888595 -1.615872207e-22)
(0.5050346874 -0.04280415936 -4.262375049e-23)
(0.4657323373 -0.07629409808 0)
(0.3951687534 -0.1285970047 -1.843019749e-22)
(0.2915310386 -0.2208431588 8.145009347e-22)
(0.1196995684 -0.352498472 1.631028228e-21)
(0.02669385919 -0.3775429116 2.172357533e-21)
(0.2143008556 0.1347559349 9.861114924e-22)
(0.2776666929 0.09871943137 0)
(0.431698938 0.05811090302 -2.59252955e-22)
(0.5304915048 0.03846040459 -1.740705739e-22)
(0.6016666774 0.02622512737 0)
(0.6570324279 0.01830772528 -5.998899111e-23)
(0.7013796067 0.0131262236 6.360453623e-23)
(0.7374217051 0.009536630431 -1.793564436e-23)
(0.7667326144 0.006805100738 2.875531659e-23)
(0.7900065384 0.004471500721 2.306986172e-23)
(0.8072712979 0.002232970477 0)
(0.8181123571 -0.0001353675803 -2.866091419e-23)
(0.8215431467 -0.002708127672 0)
(0.8161773669 -0.005700864925 2.73511783e-23)
(0.7991067095 -0.009604412905 1.424180719e-23)
(0.7679957197 -0.01500060998 -5.794973557e-23)
(0.7106618267 -0.02502820217 -2.533574518e-22)
(0.6235223896 -0.04204636547 -6.915161913e-22)
(0.4230086195 -0.09183336993 0)
(0.2705663543 -0.1524038556 -2.119192621e-21)
)


// ************************************************************************* //
