/*--------------------------------*- C++ -*----------------------------------*\
  =========                 |
  \\      /  F ield         | OpenFOAM: The Open Source CFD Toolbox
   \\    /   O peration     | Website:  https://openfoam.org
    \\  /    A nd           | Version:  13
     \\/     M anipulation  |
\*---------------------------------------------------------------------------*/
FoamFile
{
    format      ascii;
    class       vectorField;
    location    "13";
    object      U_all;
}
// * * * * * * * * * * * * * * * * * * * * * * * * * * * * * * * * * * * * * //


400
(
(0.000117282517 -0.0001194570747 0)
(-0.0002138853854 7.282833907e-05 0)
(-0.001418950219 0.0002709915651 0)
(-0.003306478286 0.0003981583312 0)
(-0.005589307971 0.0004626337057 0)
(-0.008014502268 0.0004805249015 0)
(-0.01037538682 0.0004609580516 0)
(-0.01248830274 0.0004055995239 0)
(-0.01417488654 0.0003120141389 0)
(-0.01525925001 0.0001784908113 0)
(-0.01558237247 8.960055638e-06 0)
(-0.01503208853 -0.0001832220646 0)
(-0.01358212897 -0.0003734602079 0)
(-0.01132925564 -0.0005279624378 0)
(-0.008514195624 -0.000610012098 0)
(-0.00551147187 -0.0005900380011 0)
(-0.002778839707 -0.00045673012 0)
(-0.0007648992688 -0.0002259695344 0)
(0.0002320640142 4.554117684e-05 0)
(0.0002184555276 0.0002138251905 0)
(-8.068560854e-05 0.0002101094078 0)
(-0.0017633249 0.001680931704 0)
(-0.005352491824 0.003160118044 0)
(-0.01036625539 0.004160813963 0)
(-0.0161960062 0.004661686109 0)
(-0.02228707474 0.004729480312 0)
(-0.02815067818 0.004419031733 0)
(-0.03333588437 0.003754093006 0)
(-0.03740960947 0.002742341532 0)
(-0.03996193423 0.001404108915 0)
(-0.04064229742 -0.0001970816379 0)
(-0.03922255064 -0.00193167647 0)
(-0.03567440958 -0.003597167367 0)
(-0.03023987465 -0.004935433062 0)
(-0.02346701226 -0.005678152138 0)
(-0.01618337391 -0.00561685133 0)
(-0.009386735969 -0.004683341563 0)
(-0.00404949555 -0.003022103066 0)
(-0.0008503174408 -0.001057904535 0)
(0.000112333032 0.0002759345789 0)
(-0.0003225567767 0.001520265035 0)
(-0.003621424446 0.005384164022 0)
(-0.00957837082 0.008777278646 0)
(-0.01738426181 0.01103580896 0)
(-0.02618260585 0.01212853629 0)
(-0.03522908487 0.01217137929 0)
(-0.04385445248 0.01126682891 0)
(-0.05143041399 0.009469171266 0)
(-0.05735455302 0.006814285101 0)
(-0.06106465928 0.003377763177 0)
(-0.06208707732 -0.0006634441358 0)
(-0.0601149991 -0.004985999505 0)
(-0.05510305438 -0.009109871538 0)
(-0.04735626979 -0.01243783141 0)
(-0.03758292792 -0.01435500939 0)
(-0.02687533258 -0.01438344375 0)
(-0.01658588763 -0.01236411916 0)
(-0.008085749013 -0.008619418134 0)
(-0.002443911855 -0.004059691138 0)
(-5.989231212e-05 -0.000432868771 0)
(-0.0005369626862 0.003803908136 0)
(-0.005370739753 0.01113262113 0)
(-0.01357668582 0.01695201689 0)
(-0.02396161238 0.02069589466 0)
(-0.03542115004 0.02241726723 0)
(-0.04706732718 0.02231342626 0)
(-0.05811631771 0.02054488024 0)
(-0.06782942085 0.01720158169 0)
(-0.0754919939 0.01235471911 0)
(-0.0804277299 0.006148029224 0)
(-0.08204953635 -0.001106442108 0)
(-0.07994437771 -0.008857303787 0)
(-0.07398214363 -0.0162938124 0)
(-0.06443080148 -0.02240206684 0)
(-0.0520478829 -0.02611762269 0)
(-0.03810335732 -0.02657689921 0)
(-0.02427998737 -0.0234316065 0)
(-0.01241193354 -0.01714018833 0)
(-0.004096435557 -0.009123741568 0)
(-0.0002090240681 -0.00196517579 0)
(-0.0007217631672 0.006963365669 0)
(-0.006951948447 0.01876156084 0)
(-0.01724260158 0.02746473693 0)
(-0.03001948995 0.03285931899 0)
(-0.04393948308 0.03520961475 0)
(-0.05800077683 0.03485231833 0)
(-0.07135094588 0.03202556762 0)
(-0.08318976249 0.02685539459 0)
(-0.09272909861 0.01943918812 0)
(-0.09919535973 0.009975083465 0)
(-0.1018726385 -0.001103473218 0)
(-0.1001873638 -0.01302204841 0)
(-0.09383197303 -0.02462106105 0)
(-0.08291842203 -0.0344092005 0)
(-0.06813582565 -0.04075374663 0)
(-0.05085855966 -0.04223252578 0)
(-0.03312008268 -0.03811968406 0)
(-0.01735838295 -0.02887914465 0)
(-0.005918359815 -0.01643676583 0)
(-0.0003502742191 -0.00433351849 0)
(-0.0008809516459 0.01090157264 0)
(-0.008365958424 0.02809876616 0)
(-0.02055374427 0.04012665114 0)
(-0.03552875853 0.04733897702 0)
(-0.0517341717 0.05034238629 0)
(-0.06808592481 0.04968436914 0)
(-0.08370304146 0.04570745664 0)
(-0.09776532992 0.03857016436 0)
(-0.1094437606 0.02837100097 0)
(-0.1178797315 0.01532151895 0)
(-0.1222097135 -7.329619991e-05 0)
(-0.1216413424 -0.01686111597 0)
(-0.1155884647 -0.03355007226 0)
(-0.1038693423 -0.04812629791 0)
(-0.08695389816 -0.05824813678 0)
(-0.06620462363 -0.06168670442 0)
(-0.04399456563 -0.05702639597 0)
(-0.02352238991 -0.04448123687 0)
(-0.008187728175 -0.02644066223 0)
(-0.0005212287927 -0.007658643586 0)
(-0.001015194333 0.01553221964 0)
(-0.009610194823 0.03896675915 0)
(-0.02347877508 0.05473620247 0)
(-0.04042108887 0.06394483224 0)
(-0.05869965546 0.06766786554 0)
(-0.07718406815 0.06673978487 0)
(-0.09500552711 0.06163811115 0)
(-0.1113665589 0.05254709285 0)
(-0.1254349639 0.03952849331 0)
(-0.1362907178 0.02274287594 0)
(-0.1429212619 0.002682955993 0)
(-0.1442767584 -0.01960890088 0)
(-0.1394044675 -0.04237116241 0)
(-0.127683796 -0.06305924058 0)
(-0.1091704636 -0.07848580108 0)
(-0.0850116814 -0.08530451568 0)
(-0.05780234894 -0.08094649045 0)
(-0.03160241201 -0.06491847063 0)
(-0.01125724759 -0.03991063835 0)
(-0.0007671866712 -0.01223236809 0)
(-0.001122189464 0.02076688786 0)
(-0.01066722362 0.05116428279 0)
(-0.02595452856 0.07104729473 0)
(-0.04456182493 0.08242579715 0)
(-0.06460319995 0.08696528706 0)
(-0.08493907512 0.08586643695 0)
(-0.1047555054 0.07977652895 0)
(-0.1233259415 0.06889957411 0)
(-0.1398658209 0.05321707871 0)
(-0.1534414067 0.03275949079 0)
(-0.1629261492 0.007896435629 0)
(-0.1670196702 -0.02037054127 0)
(-0.1643586506 -0.05013347456 0)
(-0.153760158 -0.07838117888 0)
(-0.1346411591 -0.1010020567 0)
(-0.1076227282 -0.1132110094 0)
(-0.07522250936 -0.1106709636 0)
(-0.04229154709 -0.09141718733 0)
(-0.01553220596 -0.05797875004 0)
(-0.00114390258 -0.01854405767 0)
(-0.001199693334 0.02650668737 0)
(-0.01151529151 0.06445138791 0)
(-0.02790095249 0.08874332454 0)
(-0.0477680944 0.1024227308 0)
(-0.06910653517 0.107866383 0)
(-0.09080216274 0.1067259734 0)
(-0.112139273 0.09986110856 0)
(-0.1325165257 0.08749734267 0)
(-0.1512638735 0.06949798995 0)
(-0.1675129366 0.04568406094 0)
(-0.1801088953 0.01617860566 0)
(-0.1875771403 -0.01822324962 0)
(-0.1881800587 -0.05565905585 0)
(-0.1801184878 -0.0928249085 0)
(-0.1619653077 -0.1247401915 0)
(-0.1334205869 -0.1449523792 0)
(-0.09639633193 -0.1466594182 0)
(-0.05613912003 -0.1252703445 0)
(-0.02146232909 -0.08211050829 0)
(-0.00172533959 -0.02730826093 0)
(-0.001251127986 0.03264537398 0)
(-0.01215470419 0.07854932801 0)
(-0.02926520762 0.1074221687 0)
(-0.04986644143 0.1234301985 0)
(-0.07183567475 0.1297893599 0)
(-0.0941152676 0.1286977916 0)
(-0.1161310744 0.1212825263 0)
(-0.1374653934 0.1078082328 0)
(-0.1576429364 0.08800116274 0)
(-0.1759695763 0.06141259439 0)
(-0.19140115 0.02780624984 0)
(-0.2024471154 -0.01240779526 0)
(-0.2071433945 -0.05766714461 0)
(-0.2031464215 -0.1046782215 0)
(-0.1880805277 -0.1478585708 0)
(-0.1603322276 -0.1791022878 0)
(-0.1204787619 -0.1885454758 0)
(-0.07330492682 -0.167460641 0)
(-0.02950944447 -0.1139957437 0)
(-0.00261464311 -0.03949652178 0)
(-0.001294630761 0.0390918227 0)
(-0.01265118647 0.09316679815 0)
(-0.03009327714 0.1266016461 0)
(-0.05078609903 0.1447742738 0)
(-0.07249533727 0.1518896336 0)
(-0.09425344183 0.1508040999 0)
(-0.1156745478 0.1429822453 0)
(-0.1365850652 0.1287664076 0)
(-0.1567899503 0.1077575308 0)
(-0.1758943777 0.07921578441 0)
(-0.193141373 0.04247257346 0)
(-0.2072572407 -0.002605125592 0)
(-0.2163169212 -0.055034831 0)
(-0.2176721965 -0.111952751 0)
(-0.2080952484 -0.1676979927 0)
(-0.1844174706 -0.2129275357 0)
(-0.1451014367 -0.2345193176 0)
(-0.09314882203 -0.2180266075 0)
(-0.04004209727 -0.1552689933 0)
(-0.003957247961 -0.05635972597 0)
(-0.001377421922 0.04582364761 0)
(-0.01320022761 0.1080643217 0)
(-0.03062697277 0.1457526584 0)
(-0.05067706426 0.1656124769 0)
(-0.07100930906 0.1730376464 0)
(-0.09080245846 0.1716750336 0)
(-0.1099210528 0.1634071131 0)
(-0.1284986767 0.1487099626 0)
(-0.1466994927 0.1271044835 0)
(-0.1645443535 0.09758994091 0)
(-0.1817429792 0.05905726185 0)
(-0.1975019731 0.01074019294 0)
(-0.2102853502 -0.04719523134 0)
(-0.2175551522 -0.1127909815 0)
(-0.2156046081 -0.1810568546 0)
(-0.1998002509 -0.242327769 0)
(-0.165931254 -0.2807775513 0)
(-0.113673087 -0.2751886242 0)
(-0.05308940357 -0.2069366229 0)
(-0.005953308459 -0.0794054406 0)
(-0.001599794423 0.0529903061 0)
(-0.01421972526 0.1231662196 0)
(-0.03141943754 0.1643569245 0)
(-0.05002544207 0.184949811 0)
(-0.0676385976 0.1918234706 0)
(-0.08370401914 0.1895641589 0)
(-0.09843738521 0.1805439097 0)
(-0.1123502568 0.1654277652 0)
(-0.1260269416 0.1437226121 0)
(-0.1399828745 0.1142452492 0)
(-0.1545229666 0.07551707678 0)
(-0.1695523421 0.02615810556 0)
(-0.1842859325 -0.03460157488 0)
(-0.1968266825 -0.1061084745 0)
(-0.2036430055 -0.1848814743 0)
(-0.1992074971 -0.2623001302 0)
(-0.1766311288 -0.3213910352 0)
(-0.1309878559 -0.3344605036 0)
(-0.06788713422 -0.2684042536 0)
(-0.008856655496 -0.1102517247 0)
(-0.002157272218 0.06109205065 0)
(-0.01648056041 0.1387200195 0)
(-0.03344478061 0.1819625684 0)
(-0.04969764269 0.2016384311 0)
(-0.06296734566 0.2065623616 0)
(-0.07321882287 0.2023981442 0)
(-0.08118945779 0.1920279544 0)
(-0.08785457414 0.1763229981 0)
(-0.09425322652 0.1548315197 0)
(-0.1014116112 0.1262889643 0)
(-0.1102628023 0.08898525145 0)
(-0.1215109957 0.04106909076 0)
(-0.1353698344 -0.01909509117 0)
(-0.1510820968 -0.09231617301 0)
(-0.1661265347 -0.177301685 0)
(-0.1751656197 -0.2680383414 0)
(-0.1694673459 -0.3489491009 0)
(-0.139100869 -0.3882207522 0)
(-0.08220772962 -0.33616486 0)
(-0.01290216964 -0.1502045815 0)
(-0.003398401256 0.07125777913 0)
(-0.02126148293 0.1554708842 0)
(-0.03810176426 0.1981561495 0)
(-0.05071386042 0.2142735869 0)
(-0.05747510729 0.2152242291 0)
(-0.05936120326 0.2077914662 0)
(-0.05789652332 0.1952606262 0)
(-0.05461907698 0.1786348752 0)
(-0.05102409793 0.1575049207 0)
(-0.04859331965 0.1306054852 0)
(-0.04880730457 0.0961558772 0)
(-0.0531049626 0.05207145934 0)
(-0.06272851074 -0.003867843096 0)
(-0.0783326146 -0.07372690883 0)
(-0.09915674639 -0.1586135744 0)
(-0.1214631732 -0.2564002921 0)
(-0.1364623313 -0.3560229573 0)
(-0.1302288623 -0.4262341703 0)
(-0.09158784649 -0.402615189 0)
(-0.01799526078 -0.1994330554 0)
(-0.00581093204 0.08571934289 0)
(-0.03034581206 0.1747280194 0)
(-0.04668435357 0.2121675027 0)
(-0.05307000837 0.2207045154 0)
(-0.04985631401 0.2150536715 0)
(-0.03989670051 0.2028342467 0)
(-0.02583522499 0.1873728377 0)
(-0.009836653114 0.1695766009 0)
(0.006210905096 0.1489837443 0)
(0.02050666027 0.1243500199 0)
(0.03120619978 0.09395976297 0)
(0.03635079542 0.05574849334 0)
(0.03388370296 0.007321777713 0)
(0.02184236548 -0.05408209237 0)
(-0.001075601989 -0.1314834163 0)
(-0.03396954978 -0.2270027625 0)
(-0.07047946418 -0.3368911269 0)
(-0.09541912874 -0.4371019145 0)
(-0.08867182008 -0.4558343326 0)
(-0.02301718134 -0.2562081517 0)
(-0.00992688631 0.1093433066 0)
(-0.04512767694 0.1980467386 0)
(-0.05761633577 0.2214156922 0)
(-0.05122361342 0.2165966989 0)
(-0.03160358768 0.2015348839 0)
(-0.004649307572 0.1834879964 0)
(0.02579175837 0.1649895155 0)
(0.057122634 0.1464064533 0)
(0.08732757298 0.127018547 0)
(0.1145779074 0.1055617009 0)
(0.1369596658 0.08047307133 0)
(0.1523171294 0.0499139593 0)
(0.1581614241 0.01170142638 0)
(0.1516714234 -0.03692114112 0)
(0.1298598543 -0.09976499478 0)
(0.09041564833 -0.1821291396 0)
(0.03482909601 -0.2887134111 0)
(-0.02484972142 -0.4096768117 0)
(-0.06306955906 -0.4800997004 0)
(-0.02511071684 -0.3165510462 0)
(-0.01751738156 0.1528310987 0)
(-0.06173544079 0.2241328584 0)
(-0.05451458044 0.2163989524 0)
(-0.01927479672 0.1919354615 0)
(0.02732512317 0.1668456645 0)
(0.07716993286 0.1443341759 0)
(0.1266243452 0.1247280362 0)
(0.1736868942 0.1073299406 0)
(0.2169591199 0.09096387266 0)
(0.2551517393 0.07432450292 0)
(0.2867320791 0.05610915681 0)
(0.3097706161 0.03486113253 0)
(0.3218063867 0.00889590724 0)
(0.3197696912 -0.02394202255 0)
(0.2998482339 -0.06693343813 0)
(0.2573107579 -0.1261027931 0)
(0.1877595682 -0.2124910632 0)
(0.09396140557 -0.3347713855 0)
(-0.00100258017 -0.4537812091 0)
(-0.01707844185 -0.3653593469 0)
(-0.02376444885 0.2091529768 0)
(-0.03715744761 0.2315289095 0)
(0.03782212952 0.1768657268 0)
(0.1245118502 0.1362275746 0)
(0.2034635352 0.1075606215 0)
(0.2734514894 0.08615862522 0)
(0.3353522312 0.06990770308 0)
(0.389742678 0.0571545159 0)
(0.4369214239 0.04643180883 0)
(0.4766750481 0.03656545568 0)
(0.5085185639 0.02656216593 0)
(0.5314314046 0.015460903 0)
(0.5434283667 0.002285072897 0)
(0.5417324497 -0.01417052825 0)
(0.5223398716 -0.03599908682 0)
(0.4795515903 -0.06720978295 0)
(0.4049818821 -0.1178243532 0)
(0.2864519469 -0.2088701131 0)
(0.1303253942 -0.3382949001 0)
(0.03712618591 -0.3394164581 0)
(0.2421008357 0.1093833491 0)
(0.314326054 0.09745075676 0)
(0.4456894109 0.05698876435 0)
(0.5509054791 0.03487930233 0)
(0.6247220306 0.02332127245 0)
(0.6791758494 0.0162066895 0)
(0.7216741337 0.01148479652 0)
(0.7556331357 0.00827108857 0)
(0.7828468211 0.005967629713 0)
(0.8042525537 0.00414521678 0)
(0.8201047371 0.002464159282 0)
(0.8300469821 0.000674137859 0)
(0.83317051 -0.001411108339 0)
(0.8279821264 -0.003944079784 0)
(0.812034958 -0.007248466508 0)
(0.781139414 -0.0120659346 0)
(0.7265288312 -0.02052128134 0)
(0.6308568647 -0.03757140002 0)
(0.4595604054 -0.08589644443 0)
(0.3046619087 -0.1258098234 0)
)


// ************************************************************************* //
