/*--------------------------------*- C++ -*----------------------------------*\
  =========                 |
  \\      /  F ield         | OpenFOAM: The Open Source CFD Toolbox
   \\    /   O peration     | Website:  https://openfoam.org
    \\  /    A nd           | Version:  13
     \\/     M anipulation  |
\*---------------------------------------------------------------------------*/
FoamFile
{
    format      ascii;
    class       volScalarField;
    location    "37";
    object      p;
}
// * * * * * * * * * * * * * * * * * * * * * * * * * * * * * * * * * * * * * //

dimensions      [0 2 -2 0 0 0 0];

internalField   nonuniform List<scalar> 
400
(
1.187962001e-07
-0.0005473711383
-0.0008894237417
-0.001016919242
-0.0009380606558
-0.0006851989843
-0.0002959086173
0.0001938140227
0.00074744238
0.001324494891
0.001879335194
0.00235910414
0.002708404261
0.002874139044
0.002814777444
0.002512329802
0.001987269347
0.001296733732
0.0006378020701
4.189629517e-05
0.0005882870986
6.988315884e-06
-0.0003567502101
-0.0004990867997
-0.0004684435955
-0.0002913818954
2.720260304e-06
0.0003845697127
0.000822748964
0.001279986387
0.001716437739
0.002080953798
0.002323167992
0.002395716335
0.002264726734
0.001921423784
0.001392554444
0.00074317475
0.0001455213522
-0.0005171750464
0.0009525417618
0.0003081311128
-9.31222296e-05
-0.0002394552664
-0.0002333418989
-0.0001048536917
0.0001219756261
0.0004258609702
0.0007830681158
0.001161583841
0.001529605579
0.001833000227
0.00202184235
0.002047414613
0.001874583815
0.00149353121
0.0009282324694
0.0002352440143
-0.000463236792
-0.001300218849
0.0009762509116
0.0002580777879
-0.0001921749142
-0.0003444705773
-0.0003537329421
-0.0002567567124
-7.417723766e-05
0.0001814169029
0.0004964864288
0.0008507942363
0.001203142838
0.001510613697
0.001712407318
0.001747995044
0.001568511062
0.001150568179
0.0005059842572
-0.0003185066275
-0.001233849655
-0.002384655482
0.0004805903096
-0.0002848992159
-0.0007638103293
-0.0009155163288
-0.0009365428567
-0.0008681183385
-0.0007252150883
-0.0005082853655
-0.0002170437442
0.0001392634347
0.0005302019954
0.0009075001521
0.001199934221
0.001326619359
0.001211141807
0.0008003039017
8.005409031e-05
-0.0009175480532
-0.002127539383
-0.003656041889
-0.0006862575454
-0.001467040559
-0.001956091947
-0.002107151511
-0.002149935656
-0.002126588762
-0.002042208046
-0.001879584996
-0.001617469974
-0.001245437538
-0.0007790259637
-0.00026277207
0.0002207047981
0.0005615751169
0.0006379259557
0.0003416219765
-0.0003929361616
-0.001563974589
-0.003134762091
-0.005142000057
-0.002661726835
-0.003423437097
-0.003915300711
-0.0040806811
-0.004178053993
-0.004247112312
-0.004278133202
-0.004229077083
-0.004047470954
-0.003689516955
-0.00314066611
-0.002426673022
-0.001633433934
-0.0009033670762
-0.0004247568773
-0.0003986194185
-0.000988164204
-0.002260503285
-0.004232663229
-0.006828242266
-0.005554924607
-0.006269851062
-0.006768135507
-0.006982081379
-0.007195472883
-0.007443374917
-0.007697084438
-0.007882150799
-0.007902115449
-0.007660555734
-0.007087289782
-0.00615943756
-0.004943694358
-0.003604819226
-0.002413889047
-0.001714469881
-0.001843154296
-0.003014966198
-0.005368400321
-0.008662195656
-0.009435147865
-0.01008148473
-0.01059835313
-0.01091059313
-0.01132599734
-0.01187588458
-0.01251126432
-0.01311964021
-0.01354779898
-0.01362336793
-0.01318249008
-0.01212113595
-0.0104280444
-0.00825658004
-0.005956354785
-0.004061932272
-0.003190196603
-0.003843096603
-0.006426492346
-0.01049168145
-0.01431691932
-0.01487590947
-0.01542289857
-0.01588214355
-0.01658998396
-0.01758011951
-0.01878698343
-0.02005911661
-0.02117760385
-0.02187365692
-0.02185743483
-0.02087231814
-0.01877197811
-0.01562015339
-0.01179512825
-0.008037391881
-0.005359951077
-0.004760210385
-0.007181231931
-0.01197931387
-0.02015442944
-0.02060465576
-0.02117484406
-0.02179684867
-0.02285220695
-0.02439046863
-0.02633934215
-0.02851373115
-0.03062767363
-0.03230360792
-0.0330953641
-0.03254081264
-0.03028259061
-0.02617879054
-0.02052498688
-0.01420401735
-0.008691627564
-0.005726698762
-0.007219346017
-0.01246649363
-0.02685645693
-0.02716221513
-0.02770264876
-0.02842306336
-0.02978926524
-0.03188920818
-0.03465899949
-0.0378897668
-0.04123405442
-0.04420518063
-0.04618825451
-0.04647890246
-0.04446320219
-0.03966014993
-0.03212113602
-0.02269886004
-0.01326666766
-0.006486028577
-0.005808721296
-0.01076531757
-0.03433481617
-0.03441822551
-0.03478956091
-0.03540464121
-0.03689195271
-0.03941010881
-0.04292015804
-0.04719779837
-0.05184019607
-0.05625851303
-0.05967987066
-0.0611910338
-0.05977965721
-0.05465590244
-0.04544117839
-0.03269981915
-0.01845319896
-0.006246006801
-0.001674051247
-0.00487368637
-0.04260995742
-0.04227952878
-0.04219574579
-0.04229606304
-0.04351380855
-0.04611650669
-0.05009972767
-0.0552205041
-0.0610151914
-0.0667963066
-0.0716402538
-0.07441315469
-0.07383271442
-0.06867503279
-0.0580720943
-0.04206196612
-0.02244017512
-0.00325734285
0.007346950657
0.008341346001
-0.05201046394
-0.05076111703
-0.04967793843
-0.04857903467
-0.0489268987
-0.05112032833
-0.05517302824
-0.06079638155
-0.06743569406
-0.07429006553
-0.08028294681
-0.08407640225
-0.08413083561
-0.07883772176
-0.06684298389
-0.04752359181
-0.02212761984
0.005501643596
0.02471524579
0.03352728543
-0.06365606446
-0.06018936052
-0.0570975054
-0.05376455419
-0.0524656968
-0.05368036683
-0.05736521548
-0.06313841783
-0.07026289343
-0.07780135949
-0.08449305173
-0.08878626701
-0.08889858766
-0.08283986301
-0.06885094742
-0.04562096948
-0.01375164724
0.02441678563
0.05553953896
0.07735577908
-0.08018662041
-0.07107517594
-0.06412143402
-0.05716574019
-0.05343190203
-0.05321598962
-0.05625975109
-0.06191478071
-0.06925993023
-0.07711792159
-0.08401318698
-0.08815264535
-0.08748107796
-0.07965679771
-0.06247964466
-0.03405055771
0.00556483182
0.05859401264
0.1058230516
0.1480677592
-0.1105080045
-0.08585531052
-0.07160727956
-0.05897231993
-0.0519147305
-0.04988448587
-0.05210430443
-0.05751046754
-0.06486129874
-0.07271018399
-0.07934160349
-0.08271489988
-0.0805206245
-0.06988752553
-0.04823259009
-0.01272262428
0.0382361538
0.1071321225
0.1779786852
0.2564765236
-0.1684381792
-0.09990947287
-0.07500956202
-0.05479919549
-0.04462035031
-0.04158689613
-0.04371954071
-0.04938348278
-0.05701914829
-0.06497272212
-0.07136358995
-0.07398186006
-0.07013065339
-0.05701412879
-0.03102872812
0.01192931423
0.07559950469
0.1664042726
0.276162051
0.4377043141
-0.3984294573
-0.1381006199
-0.07497172831
-0.04708974848
-0.03355083042
-0.03003164936
-0.03280386921
-0.03926669468
-0.04756049375
-0.05594105041
-0.06250206459
-0.06503112885
-0.06099636127
-0.04697015198
-0.01875694095
0.02993544177
0.1069556977
0.2334272865
0.4198802413
0.7800234229
)
;

boundaryField
{
    movingWall
    {
        type            zeroGradient;
    }
    fixedWalls
    {
        type            zeroGradient;
    }
    frontAndBack
    {
        type            empty;
    }
}


// ************************************************************************* //
