/*--------------------------------*- C++ -*----------------------------------*\
  =========                 |
  \\      /  F ield         | OpenFOAM: The Open Source CFD Toolbox
   \\    /   O peration     | Website:  https://openfoam.org
    \\  /    A nd           | Version:  13
     \\/     M anipulation  |
\*---------------------------------------------------------------------------*/
FoamFile
{
    format      ascii;
    class       scalarField;
    location    "37";
    object      p_all;
}
// * * * * * * * * * * * * * * * * * * * * * * * * * * * * * * * * * * * * * //


400
(
8.298948079e-10
-0.0005269155655
-0.001169119631
-0.001665412186
-0.001896343949
-0.001812822277
-0.001390652405
-0.0006192321905
0.0004921090914
0.001899097817
0.003507599405
0.005167388792
0.00668307014
0.007845506881
0.008481854184
0.008511828889
0.007990860437
0.00712408968
0.006242158829
0.005690268924
0.0005339137507
-1.122481966e-05
-0.0005778774899
-0.0009741006907
-0.001146993187
-0.001069927244
-0.0007220497446
-8.861635247e-05
0.0008304207594
0.002005761549
0.003363967181
0.004780390609
0.00608646776
0.00709785726
0.007659837155
0.007699161228
0.007262203636
0.006520078842
0.005733023342
0.005171475839
0.001201252493
0.0005186395317
-8.010855397e-05
-0.0004418980495
-0.0005997645803
-0.0005612830758
-0.0003114923639
0.000171844914
0.0009047917775
0.00187964089
0.003046680463
0.004302610572
0.005493618543
0.006439798459
0.006980207952
0.007027174455
0.006606832823
0.00585853285
0.004986893937
0.004255272527
0.001680010017
0.0007996225349
8.419646825e-05
-0.0003206643233
-0.0005255487428
-0.0005708058276
-0.0004451313968
-0.0001141423341
0.0004604120461
0.001297754922
0.002373355417
0.00359999633
0.00482413167
0.00584673623
0.00647066545
0.006564513642
0.006116273177
0.005238284016
0.004116059846
0.003083276792
0.001715972165
0.0006354443322
-0.0002226960672
-0.0007144134352
-0.001016336169
-0.001193990428
-0.001233696648
-0.00108277716
-0.000673970555
4.614413246e-05
0.0010847547
0.00237453386
0.003759001319
0.005006859892
0.005859782
0.006109507016
0.005675404184
0.004630427084
0.003160966228
0.001731339299
0.001098636878
-0.0001603930152
-0.001162823325
-0.001770826292
-0.002216817823
-0.002583468831
-0.002848445419
-0.002934456254
-0.002737367609
-0.002158969807
-0.001147070416
0.0002654981546
0.001927982316
0.003573869799
0.004861366325
0.005463598926
0.005181116993
0.004009450983
0.002133274452
0.0002086832495
-0.0003491021609
-0.001754552664
-0.002894640654
-0.003645749488
-0.004286967769
-0.004911967587
-0.005485559437
-0.005900972879
-0.006009126421
-0.005653014566
-0.004713814883
-0.003166954142
-0.00112911626
0.001109401678
0.003108267615
0.004372182614
0.004506035418
0.003349895451
0.001047650534
-0.001483072593
-0.002763734329
-0.004277291695
-0.005544454988
-0.006464976246
-0.007356900941
-0.008322002279
-0.00931171312
-0.01018805653
-0.01075058712
-0.01076875263
-0.01003122668
-0.008413885443
-0.005957783468
-0.002939592321
0.0001077086384
0.002473239903
0.003461703694
0.002621688401
-4.70346901e-05
-0.003296322841
-0.006229384488
-0.007808058606
-0.009186212337
-0.01029609427
-0.0114896792
-0.01287851257
-0.01440501894
-0.01590300629
-0.01711841125
-0.01773480837
-0.01742060177
-0.0159062086
-0.0130923609
-0.009173046551
-0.004728638697
-0.0007052400984
0.001784783685
0.001793309588
-0.001030893652
-0.005076225388
-0.01076813359
-0.01236466762
-0.01382513197
-0.01512243797
-0.01664320979
-0.01851676991
-0.02068643674
-0.02296617687
-0.02505214293
-0.02653676058
-0.02694708959
-0.0258237933
-0.02285595887
-0.01805353814
-0.01194406423
-0.005664404006
-0.0008308102863
0.0008523197248
-0.00166290225
-0.006473800494
-0.01633997925
-0.01790170447
-0.01938931753
-0.02082339272
-0.02263771882
-0.02499637615
-0.0278587023
-0.03103123608
-0.03416968395
-0.0367792167
-0.0382381919
-0.03786744583
-0.03508893452
-0.02961069466
-0.02175795229
-0.01271885576
-0.004603056269
-0.0001225159179
-0.001502899738
-0.006814433962
-0.02286171928
-0.0243253177
-0.02573534083
-0.02716848158
-0.02914078695
-0.03188065974
-0.03538195435
-0.03945603915
-0.04372849602
-0.04762734089
-0.05039178739
-0.05112777965
-0.04892361693
-0.04313252581
-0.03370367839
-0.02164478947
-0.009389325185
-0.0007873349079
0.0002218207809
-0.00490191338
-0.03025635992
-0.03153044247
-0.03266995447
-0.03382828639
-0.03567823032
-0.03855744672
-0.04251121294
-0.04736025639
-0.05270287069
-0.05789699244
-0.06205463978
-0.06407666851
-0.06275977343
-0.05703649593
-0.04636438336
-0.03131397802
-0.01431053695
-0.0002292043547
0.004852516431
0.001261756569
-0.03855503316
-0.03946582734
-0.03998286401
-0.04039692186
-0.04167039788
-0.04430530601
-0.04840200974
-0.05377655098
-0.05998487694
-0.06630757831
-0.07173562861
-0.07498802667
-0.07459636426
-0.06910540337
-0.05744505675
-0.03955937413
-0.01745549205
0.00338732389
0.01465128857
0.01483442755
-0.04809995827
-0.04823669345
-0.04748087049
-0.04641610454
-0.04648780688
-0.04839663151
-0.05226440708
-0.05785688998
-0.06464659972
-0.07180694534
-0.07819376584
-0.08234971419
-0.08256761982
-0.07705686646
-0.06426877349
-0.04347373257
-0.0159220249
0.01297588714
0.03305831829
0.04035361712
-0.05989129871
-0.0582723249
-0.05503197438
-0.05141199718
-0.04953612675
-0.05023204516
-0.05353420458
-0.05907084233
-0.06616327149
-0.07382703074
-0.08074732276
-0.08527057459
-0.08544935914
-0.0791827512
-0.06450696364
-0.04008876697
-0.006279212826
0.03229361768
0.06448091881
0.08326614146
-0.07617686149
-0.07064202079
-0.06260681446
-0.05493775661
-0.05035363362
-0.0494618364
-0.05199079152
-0.05730376735
-0.06448810735
-0.07234377477
-0.07934520345
-0.08361164584
-0.08292735154
-0.07484831544
-0.05697209016
-0.02737575302
0.01451253794
0.06544271443
0.1143437626
0.1501409525
-0.1041076406
-0.08788661249
-0.06995733162
-0.05626064778
-0.04836280028
-0.04575099527
-0.04752573024
-0.05263172791
-0.05983499979
-0.06768414237
-0.0744348496
-0.07797849888
-0.0758237619
-0.06512340699
-0.04287884617
-0.0062610848
0.04668176285
0.1152573628
0.1914254672
0.2582318966
-0.175925762
-0.1148486779
-0.073598791
-0.05189456958
-0.04118667902
-0.03756331144
-0.03924347504
-0.04466219953
-0.0522174465
-0.06024706152
-0.06687106241
-0.0698363207
-0.06646195423
-0.05356387241
-0.02741067146
0.01634184272
0.08264909412
0.1772920263
0.3053389685
0.4526196144
-0.3557969588
-0.1552136184
-0.07041396835
-0.04278173915
-0.03135291707
-0.02759141893
-0.0297456112
-0.03590056742
-0.04412183514
-0.05261592695
-0.05947438913
-0.06243680706
-0.05877319149
-0.04514899186
-0.01726283615
0.0307638477
0.1083565947
0.2332859626
0.4347346478
0.7358061056
)


// ************************************************************************* //
