/*--------------------------------*- C++ -*----------------------------------*\
  =========                 |
  \\      /  F ield         | OpenFOAM: The Open Source CFD Toolbox
   \\    /   O peration     | Website:  https://openfoam.org
    \\  /    A nd           | Version:  13
     \\/     M anipulation  |
\*---------------------------------------------------------------------------*/
FoamFile
{
    format      ascii;
    class       surfaceScalarField;
    location    "37";
    object      phi;
}
// * * * * * * * * * * * * * * * * * * * * * * * * * * * * * * * * * * * * * //

dimensions      [0 3 -1 0 0 0 0];

internalField   nonuniform List<scalar> 
760
(
-1.321935231e-05
1.321804514e-05
-7.201803375e-05
5.87986821e-05
-0.0001620728313
9.005479779e-05
-0.0002652229162
0.0001031500844
-0.0003682425515
0.0001030196416
-0.000461504355
9.326181596e-05
-0.0005377499619
7.624561741e-05
-0.0005912420378
5.349207773e-05
-0.0006175092332
2.626718878e-05
-0.0006135892578
-3.919984322e-06
-0.0005784599436
-3.512931887e-05
-0.000513842753
-6.461718793e-05
-0.0004246594859
-8.918325686e-05
-0.0003192817675
-0.0001053777048
-0.0002092254018
-0.0001100563559
-0.0001081385944
-0.0001010868071
-2.992501002e-05
-7.821359314e-05
1.414932209e-05
-4.407434059e-05
2.190953904e-05
-7.760208821e-06
2.19095615e-05
-6.870358233e-05
8.192162919e-05
-0.0002457757739
0.000235870879
-0.0004934733375
0.0003377523751
-0.0007722778948
0.0003819546516
-0.001050409354
0.000381151102
-0.00130300603
0.0003458584902
-0.001510604056
0.0002838436454
-0.001657872049
0.0002007600802
-0.001733199596
0.0001015947473
-0.001729305376
-7.814192119e-06
-0.001643831097
-0.0001206035947
-0.001481413757
-0.0002270345266
-0.001254381633
-0.0003162153747
-0.0009832947245
-0.0003764646054
-0.0006961415341
-0.0003972095419
-0.0004257314354
-0.0003714969078
-0.0002049932795
-0.0002989517498
-5.981233085e-05
-0.0001892552733
-4.92187215e-07
-6.70803241e-05
2.141738259e-05
-0.0001229342758
0.0002048559073
-0.0004149724188
0.0005279090188
-0.000808668205
0.0007314481672
-0.00124716507
0.0008204515292
-0.001684661381
0.0008186474269
-0.002084430071
0.0007456271908
-0.002416965462
0.0006163790404
-0.002658576073
0.0004423706876
-0.002790991416
0.000234010081
-0.00280241336
3.607746162e-06
-0.002687901935
-0.0002351150227
-0.002452961431
-0.000461975021
-0.002114171588
-0.0006550052009
-0.001700374143
-0.0007902620346
-0.00125182228
-0.0008457613997
-0.0008167446504
-0.0008065745426
-0.0004446232979
-0.0006710731097
-0.000176232093
-0.0004576464775
-3.221222008e-05
-0.0002111001843
-1.079484681e-05
-0.0001720783655
0.0003769342784
-0.0005725606986
0.0009283913518
-0.001105967621
0.001264855087
-0.001698036157
0.001412520067
-0.002290596656
0.001411207932
-0.002837253914
0.001292284461
-0.00330021672
0.001079341859
-0.00364829146
0.0007904454348
-0.003856338356
0.0004420569758
-0.003905815632
5.308500382e-05
-0.003787747249
-0.0003531834125
-0.003504024461
-0.0007456978047
-0.003071272144
-0.001087757504
-0.002522630579
-0.001338903589
-0.00190799598
-0.001460396
-0.001290905442
-0.001423665095
-0.0007407541741
-0.001221224395
-0.0003202708822
-0.0008781297754
-7.110222957e-05
-0.0004602688371
-8.189708563e-05
-0.0002170220878
0.0005939563683
-0.0007188331228
0.001430202396
-0.001385655486
0.001931677453
-0.002127123104
0.002153987686
-0.002874373555
0.002158458385
-0.003573194634
0.001991105544
-0.004178978541
0.001685125771
-0.00465358355
0.001265050444
-0.004964197823
0.0007526712444
-0.005084016608
0.0001729037836
-0.004995022585
-0.0004421774356
-0.004691188376
-0.001049532004
-0.004183517621
-0.001595428242
-0.003504389385
-0.002018031811
-0.002710449819
-0.002254335566
-0.001881577731
-0.002252537195
-0.001113233074
-0.001989569065
-0.000500821017
-0.001490541835
-0.0001191421184
-0.0008419477369
-0.0002010392051
-0.0002573667175
0.0008513230812
-0.000851339689
0.002024175374
-0.001642296441
0.00272263421
-0.002526556876
0.003038248128
-0.003426900559
0.003058802076
-0.004283387991
0.002847592983
-0.005046213874
0.002447951657
-0.005671017161
0.001889853728
-0.006116750472
0.001198404548
-0.006345980957
0.0004021342621
-0.006327842442
-0.0004603159481
-0.006042475402
-0.001334899031
-0.005488322986
-0.002149580637
-0.004689981372
-0.002816373406
-0.003705727111
-0.003238589818
-0.00263118304
-0.003327081265
-0.001594226746
-0.003026525357
-0.0007363871269
-0.002348381448
-0.0001821206241
-0.001396214236
-0.0003831598234
-0.0002911840834
0.001142507163
-0.0009641251039
0.00269711639
-0.001864163449
0.003622672557
-0.002878145158
0.004052229841
-0.003923463932
0.004104120858
-0.004937000766
0.003861129828
-0.00586588786
0.003376838758
-0.006661000989
0.002684966858
-0.007273438646
0.001810842199
-0.007653972299
0.0007826679078
-0.007755804777
-0.00035848347
-0.007539787633
-0.001550916162
-0.006984026781
-0.002705341467
-0.006095813717
-0.003704586447
-0.004925703683
-0.004408699833
-0.00357947951
-0.004673305425
-0.002220387987
-0.004385616869
-0.001050845543
-0.003517923881
-0.0002684677436
-0.002178592026
-0.0006516275594
-0.0003159655293
0.001458472697
-0.001048737442
0.003429888297
-0.00203453144
0.004608466555
-0.003154903343
0.005172601744
-0.00432513251
0.005274350031
-0.005481848507
0.005017845837
-0.006571931228
0.00446692149
-0.007544119898
0.003657155532
-0.008343810069
0.002610532365
-0.008911129235
0.001349987066
-0.009182805112
-8.68075968e-05
-0.009097011761
-0.001636709507
-0.00860458338
-0.003197769834
-0.007684198309
-0.004624971499
-0.006364067851
-0.005728830272
-0.004746042983
-0.006291330278
-0.003022881974
-0.006108777867
-0.001469581161
-0.005071224683
-0.0003882444933
-0.003259928685
-0.001039872048
-0.0003291955615
0.001787668261
-0.001096442893
0.00419713563
-0.002135079395
0.005647103058
-0.003325367962
0.006362890314
-0.004583651015
0.00653263309
-0.005849372604
0.006283567435
-0.007072574096
0.005690122992
-0.008203823812
0.004788405255
-0.009187257324
0.003593965874
-0.009956892618
0.002119622351
-0.01043606845
0.000392368223
-0.0105422488
-0.001530529165
-0.01019503414
-0.003544984494
-0.009334088434
-0.005485917194
-0.007946628398
-0.0071162903
-0.006105926285
-0.008132032383
-0.004012929906
-0.00820177424
-0.002014592799
-0.007069561785
-0.0005528021611
-0.004721719317
-0.001592674208
-0.0003297928482
0.002117461107
-0.001101701764
0.004969044551
-0.002151423191
0.00669682449
-0.003361077645
0.007572544772
-0.004650845277
0.007822400729
-0.005965956458
0.007598678627
-0.007263378895
0.006987545439
-0.008500565381
0.006025591746
-0.009627011184
0.004720411675
-0.01057860211
0.003071213265
-0.01127459466
0.001088360764
-0.01161814818
-0.001186975662
-0.0115016285
-0.003661504178
-0.01082052562
-0.006167020085
-0.009503000889
-0.008433815032
-0.007560608414
-0.01007442486
-0.005160872971
-0.01060150968
-0.002696115385
-0.00953431937
-0.0007741502762
-0.006643684423
-0.002366824485
-0.0003199349409
0.002437396045
-0.001066686716
0.005715796332
-0.002080423903
0.007710561683
-0.003246814584
0.008738935456
-0.004492307932
0.009067894083
-0.005770873283
0.008877243988
-0.007050316068
0.008266988235
-0.008300542076
0.007275817763
-0.009484302002
0.005904171602
-0.01054996252
0.004136873773
-0.01142562063
0.001964018865
-0.01201417211
-0.0005984241913
-0.01219379446
-0.003481881834
-0.01182096865
-0.00653984591
-0.01075537839
-0.009499405294
-0.008913750355
-0.0119160529
-0.00637085757
-0.01314440247
-0.003498965012
-0.01240621193
-0.001063151323
-0.009079498111
-0.003429975809
-0.0003074094572
0.002744805504
-0.001006587552
0.006414974433
-0.001938354942
0.008642329076
-0.002991899155
0.009792479668
-0.004102813678
0.01017880861
-0.00523744923
0.01001187955
-0.006378628295
0.009408167312
-0.007514084122
0.0084112736
-0.008627332126
0.007017419614
-0.009689844567
0.005199386217
-0.01065314276
0.002927317055
-0.0114375682
0.0001860012539
-0.0119294565
-0.002989993543
-0.01196499068
-0.006504311726
-0.01134373908
-0.0101206569
-0.009868967787
-0.01339082419
-0.007460114154
-0.01555325611
-0.004363834458
-0.01550249163
-0.001425535585
-0.01201779698
-0.004855511393
-0.000308928321
0.00305373383
-0.0009555676043
0.007061613724
-0.001768490358
0.009455251831
-0.002639391021
0.01066338033
-0.003518262634
0.01105768022
-0.004389723321
0.01088334024
-0.005256720014
0.01027516402
-0.00612951542
0.009284069021
-0.007017708076
0.007905612285
-0.007923327678
0.006105005833
-0.008832214284
0.003836203673
-0.009704215536
0.001058002517
-0.01045072727
-0.002243481798
-0.01092412083
-0.006030918165
-0.01089502906
-0.01014974867
-0.01006488849
-0.01422096475
-0.008157305672
-0.01746083892
-0.00516763166
-0.01849216564
-0.001854348974
-0.01533107967
-0.006709860365
-0.0003552701476
0.003409003982
-0.0009733334407
0.007679677029
-0.001646057937
0.01012797633
-0.002268711129
0.01128603351
-0.00281684097
0.01160581005
-0.003303694749
0.01137019402
-0.003759411292
0.01073088057
-0.004220926084
0.009745583826
-0.004726148335
0.008410834551
-0.005309764153
0.006688621667
-0.005996658091
0.004523097626
-0.00679179968
0.00185314412
-0.007660586896
-0.001374694568
-0.008503030534
-0.005188474516
-0.009113179124
-0.009539600069
-0.009142508777
-0.0141916351
-0.008128401081
-0.01847494662
-0.005711156735
-0.02090940998
-0.002318284802
-0.0187239516
-0.009028145165
-0.0005003771377
0.003909381126
-0.00115129682
0.008330596727
-0.001674821665
0.01065150117
-0.001981641263
0.0115928531
-0.002095673648
0.01171984243
-0.002075737054
0.01135025742
-0.001988478719
0.01064362223
-0.001901152934
0.009658258047
-0.001878928794
0.008388610418
-0.001985972779
0.006795665661
-0.002282468574
0.004819593431
-0.002818757276
0.002389432831
-0.003622153618
-0.000571298216
-0.004668844149
-0.004141783977
-0.005834636024
-0.008373808188
-0.006807664555
-0.01321860656
-0.007016669387
-0.01826594178
-0.005716401302
-0.02220967806
-0.002739567151
-0.02170078574
-0.01176771231
-0.000830885488
0.004740266623
-0.00160483322
0.009104544476
-0.001950980065
0.01099764801
-0.001839383823
0.01148125686
-0.001385436156
0.01126589476
-0.0007181332342
0.0106829545
4.821159007e-05
0.009877277405
0.0008164029994
0.008890066635
0.001495358939
0.007709654476
0.001998422524
0.006292602074
0.002238515999
0.004579499957
0.002128353492
0.002499595341
0.001583158774
-2.610349396e-05
0.0005450303675
-0.003103655567
-0.0009843156123
-0.006844462204
-0.002828402612
-0.01137451956
-0.004459126594
-0.01663521779
-0.00481048986
-0.02185831479
-0.002944291015
-0.02356698458
-0.01471200333
-0.00146568262
0.006205949255
-0.002379876967
0.01001873884
-0.00237344551
0.01099121655
-0.001603542839
0.01071135418
-0.0003496275612
0.01001197948
0.001163641201
0.009169685731
0.002771840544
0.008269078058
0.004349532586
0.007312374586
0.0057916222
0.006267564856
0.006998013501
0.005086210769
0.007865492014
0.003712021442
0.008282284192
0.002082803163
0.008123821292
0.0001323594072
0.007264495962
-0.002244330234
0.005585212384
-0.005165178623
0.003073872486
-0.008863179655
7.897156176e-05
-0.01364031687
-0.002445747633
-0.01933359559
-0.002601078113
-0.0234116541
-0.01731308144
-0.002365504033
0.008571453301
-0.002963808892
0.0106170437
-0.001922814439
0.009950222102
8.111473071e-05
0.008707425003
0.002534886356
0.007558207849
0.005140254799
0.006564317287
0.007719752549
0.005689580308
0.01015462044
0.004877506698
0.01234957242
0.004072612869
0.01421200128
0.003223781912
0.01564053929
0.002283483433
0.01651758819
0.001205754264
0.016697099
-4.715139423e-05
0.01602712571
-0.00157435694
0.01430508962
-0.003443142527
0.01133283041
-0.005890920442
0.007055613414
-0.009363099873
0.002201623443
-0.01447960562
-0.001027320639
-0.02018271001
-0.01834040207
-0.002150342838
0.01072179615
-7.199461596e-05
0.008538695496
0.003741898344
0.006136329124
0.007719772583
0.00472955077
0.01156187059
0.003716109849
0.01514100998
0.002985177914
0.01839885547
0.002431734827
0.02130155476
0.001974807412
0.02381243293
0.001561734709
0.02587973409
0.001156480755
0.02743056834
0.0007326491925
0.02836472764
0.0002715949713
0.02857561704
-0.0002580407909
0.02788766493
-0.0008864048288
0.02609934105
-0.001654818648
0.02290826549
-0.002699844881
0.01790696671
-0.004361801082
0.01076690806
-0.007339546965
0.002912180329
-0.01232798228
-0.01542822174
0.01072179615
0.01926049164
0.02539682078
0.03012637156
0.03384248141
0.03682765934
0.03925939417
0.04123420158
0.04279593629
0.04395241705
0.04468506624
0.04495666122
0.04469862043
0.0438122156
0.04215739695
0.03945755207
0.03509575099
0.02775620402
0.01542822174
)
;

boundaryField
{
    movingWall
    {
        type            calculated;
        value           uniform 0;
    }
    fixedWalls
    {
        type            calculated;
        value           uniform 0;
    }
    frontAndBack
    {
        type            empty;
    }
}


// ************************************************************************* //
