/*--------------------------------*- C++ -*----------------------------------*\
  =========                 |
  \\      /  F ield         | OpenFOAM: The Open Source CFD Toolbox
   \\    /   O peration     | Website:  https://openfoam.org
    \\  /    A nd           | Version:  13
     \\/     M anipulation  |
\*---------------------------------------------------------------------------*/
FoamFile
{
    format      ascii;
    class       surfaceScalarField;
    location    "37";
    object      phi_0;
}
// * * * * * * * * * * * * * * * * * * * * * * * * * * * * * * * * * * * * * //

dimensions      [0 3 -1 0 0 0 0];

internalField   nonuniform List<scalar> 
760
(
-1.321935341e-05
1.321804179e-05
-7.201803388e-05
5.879868177e-05
-0.0001620728356
9.005480577e-05
-0.0002652229122
0.0001031500946
-0.0003682425397
0.0001030196381
-0.0004615043481
9.326179372e-05
-0.0005377499682
7.624559148e-05
-0.0005912420516
5.349207029e-05
-0.0006175092405
2.626720911e-05
-0.0006135892514
-3.919947568e-06
-0.0005784599277
-3.512929144e-05
-0.000513842739
-6.46171844e-05
-0.0004246594818
-8.918327474e-05
-0.0003192817754
-0.0001053777264
-0.0002092254203
-0.0001100563617
-0.0001081386237
-0.00010108679
-2.992505036e-05
-7.821356186e-05
1.414927719e-05
-4.407431093e-05
2.190950735e-05
-7.760194542e-06
2.190957595e-05
-6.870358291e-05
8.192162432e-05
-0.0002457757629
0.0002358708655
-0.0004934733443
0.0003377523639
-0.0007722779175
0.0003819546585
-0.001050409368
0.0003811511264
-0.001303006018
0.000345858512
-0.001510604021
0.0002838436432
-0.001657872015
0.0002007600514
-0.001733199582
0.0001015947092
-0.001729305392
-7.814219276e-06
-0.001643831124
-0.000120603598
-0.001481413775
-0.0002270345141
-0.001254381632
-0.0003162153573
-0.0009832947083
-0.0003764645861
-0.0006961415208
-0.0003972095125
-0.0004257314419
-0.0003714968589
-0.0002049933098
-0.000298951685
-5.981236934e-05
-0.0001892552123
-4.92188163e-07
-6.70802874e-05
2.141743297e-05
-0.0001229342831
0.0002048559112
-0.0004149724045
0.0005279090227
-0.000808668189
0.0007314481534
-0.001247165069
0.0008204515097
-0.001684661397
0.000818647417
-0.00208443009
0.0007456271976
-0.002416965464
0.000616379058
-0.002658576053
0.0004423707031
-0.002790991389
0.0002340100855
-0.002802413336
3.607722505e-06
-0.002687901934
-0.0002351150404
-0.002452961441
-0.000461975039
-0.002114171588
-0.0006550052103
-0.001700374123
-0.0007902620312
-0.00125182225
-0.000845761384
-0.0008167446398
-0.0008065745178
-0.0004446233278
-0.0006710730811
-0.0001762321532
-0.0004576464496
-3.22122514e-05
-0.0002111001547
-1.079479779e-05
-0.0001720783766
0.0003769342766
-0.0005725607028
0.0009283913698
-0.001105967611
0.001264855097
-0.001698036144
0.001412520062
-0.00229059665
0.001411207915
-0.002837253918
0.001292284443
-0.003300216725
0.001079341852
-0.003648291456
0.0007904454408
-0.003856338344
0.0004420569873
-0.003905815623
5.308500902e-05
-0.003787747246
-0.000353183418
-0.003504024458
-0.0007456978219
-0.003071272129
-0.001087757526
-0.002522630545
-0.001338903609
-0.001907995942
-0.001460396017
-0.001290905428
-0.001423665112
-0.0007407542043
-0.001221224412
-0.0003202709427
-0.0008781297838
-7.11022568e-05
-0.0004602688256
-8.189705283e-05
-0.0002170220838
0.0005939563559
-0.0007188331333
0.001430202393
-0.001385655494
0.001931677464
-0.002127123105
0.002153987699
-0.00287437355
0.00215845839
-0.003573194623
0.001991105539
-0.004178978527
0.001685125761
-0.004653583535
0.001265050438
-0.004964197816
0.0007526712465
-0.005084016616
0.0001729037902
-0.004995022598
-0.0004421774315
-0.00469118838
-0.00104953201
-0.004183517605
-0.001595428261
-0.00350438935
-0.00201803184
-0.002710449781
-0.002254335601
-0.001881577715
-0.002252537235
-0.001113233094
-0.001989569102
-0.0005008210583
-0.001490541859
-0.0001191421336
-0.0008419477388
-0.0002010391936
-0.0002573667009
0.0008513230798
-0.0008513396826
0.002024175354
-0.001642296444
0.002722634203
-0.002526556887
0.003038248131
-0.003426900568
0.003058802084
-0.004283387986
0.002847592989
-0.005046213853
0.002447951658
-0.005671017135
0.001889853728
-0.006116750459
0.00119840455
-0.006345980966
0.0004021342701
-0.006327842466
-0.0004603159362
-0.00604247542
-0.00133489902
-0.005488322982
-0.002149580634
-0.004689981345
-0.002816373414
-0.003705727076
-0.003238589837
-0.002631183019
-0.003327081291
-0.001594226749
-0.003026525385
-0.0007363871427
-0.002348381468
-0.0001821206288
-0.001396214242
-0.000383159827
-0.0002911840764
0.001142507174
-0.0009641250857
0.002697116384
-0.00186416344
0.003622672547
-0.002878145162
0.004052229833
-0.003923463942
0.004104120854
-0.004937000768
0.003861129827
-0.005865887843
0.003376838758
-0.006661000961
0.00268496686
-0.007273438627
0.001810842204
-0.007653972302
0.0007826679196
-0.007755804801
-0.0003584834501
-0.007539787659
-0.001550916135
-0.006984026789
-0.002705341438
-0.006095813702
-0.003704586423
-0.004925703656
-0.004408699818
-0.003579479486
-0.004673305421
-0.002220387975
-0.004385616873
-0.00105084554
-0.003517923887
-0.000268467743
-0.002178592031
-0.0006516275682
-0.0003159655356
0.001458472701
-0.001048737429
0.003429888305
-0.00203453143
0.004608466554
-0.003154903343
0.005172601738
-0.004325132517
0.005274350021
-0.005481848508
0.005017845825
-0.006571931212
0.004466921479
-0.00754411987
0.003657155525
-0.008343810045
0.002610532365
-0.00891112923
0.001349987074
-0.009182805127
-8.680757754e-05
-0.009097011784
-0.001636709476
-0.008604583393
-0.003197769795
-0.007684198305
-0.004624971459
-0.006364067835
-0.005728830237
-0.004746042965
-0.006291330253
-0.003022881959
-0.006108777853
-0.001469581153
-0.005071224678
-0.0003882444922
-0.003259928687
-0.001039872054
-0.0003291955645
0.001787668253
-0.001096442887
0.004197135633
-0.002135079392
0.00564710306
-0.003325367968
0.006362890312
-0.004583651025
0.006532633084
-0.005849372605
0.006283567424
-0.007072574078
0.005690122976
-0.00820382378
0.004788405238
-0.009187257294
0.003593965861
-0.009956892604
0.002119622344
-0.01043606845
0.0003923682271
-0.01054224881
-0.001530529149
-0.01019503415
-0.003544984468
-0.009334088438
-0.005485917163
-0.007946628394
-0.007116290269
-0.006105926277
-0.008132032358
-0.004012929898
-0.008201774223
-0.002014592794
-0.007069561776
-0.0005528021613
-0.004721719316
-0.001592674209
-0.0003297928393
0.002117461097
-0.001101701754
0.004969044542
-0.002151423191
0.006696824487
-0.003361077659
0.007572544773
-0.004650845297
0.00782240073
-0.005965956467
0.007598678624
-0.007263378881
0.00698754543
-0.00850056535
0.006025591731
-0.009627011151
0.004720411654
-0.01057860209
0.003071213244
-0.01127459466
0.001088360747
-0.01161814818
-0.001186975671
-0.01150162851
-0.003661504177
-0.01082052562
-0.006167020077
-0.009503000892
-0.008433815019
-0.007560608414
-0.01007442485
-0.00516087297
-0.01060150967
-0.002696115385
-0.009534319363
-0.0007741502772
-0.00664368442
-0.002366824483
-0.0003199349279
0.00243739604
-0.001066686697
0.005715796321
-0.002080423899
0.007710561676
-0.003246814601
0.008738935456
-0.00449230796
0.009067894088
-0.005770873303
0.008877243995
-0.007050316067
0.008266988238
-0.008300542056
0.007275817757
-0.009484301976
0.005904171586
-0.0105499625
0.004136873748
-0.01142562062
0.001964018836
-0.01201417211
-0.0005984242166
-0.01219379447
-0.003481881852
-0.01182096865
-0.006539845919
-0.0107553784
-0.009499405297
-0.00891375036
-0.0119160529
-0.006370857574
-0.01314440247
-0.003498965015
-0.01240621192
-0.001063151324
-0.009079498107
-0.003429975807
-0.0003074094479
0.0027448055
-0.001006587526
0.006414974425
-0.001938354931
0.008642329068
-0.002991899168
0.009792479665
-0.004102813707
0.01017880861
-0.005237449257
0.01001187956
-0.006378628308
0.009408167324
-0.007514084119
0.008411273607
-0.008627332114
0.007017419611
-0.009689844555
0.005199386204
-0.01065314275
0.002927317035
-0.0114375682
0.0001860012325
-0.0119294565
-0.002989993561
-0.01196499068
-0.006504311739
-0.01134373908
-0.01012065691
-0.009868967792
-0.01339082419
-0.007460114158
-0.01555325611
-0.004363834461
-0.01550249162
-0.001425535586
-0.01201779698
-0.004855511392
-0.0003089283134
0.003053733821
-0.0009555675762
0.007061613716
-0.001768490342
0.009455251818
-0.002639391028
0.01066338032
-0.003518262659
0.01105768021
-0.00438972335
0.01088334024
-0.005256720036
0.01027516403
-0.006129515433
0.009284069036
-0.007017708081
0.007905612297
-0.007923327678
0.006105005839
-0.008832214282
0.003836203674
-0.009704215534
0.001058002514
-0.01045072727
-0.002243481802
-0.01092412083
-0.006030918168
-0.01089502906
-0.01014974867
-0.01006488849
-0.01422096475
-0.008157305675
-0.01746083892
-0.005167631663
-0.01849216563
-0.001854348974
-0.01533107966
-0.006709860365
-0.0003552701372
0.003409003971
-0.0009733334145
0.007679677018
-0.001646057919
0.01012797631
-0.002268711131
0.01128603349
-0.002816840987
0.01160581003
-0.003303694772
0.01137019401
-0.003759411315
0.01073088057
-0.004220926104
0.009745583842
-0.00472614835
0.008410834573
-0.005309764163
0.00668862169
-0.005996658095
0.004523097647
-0.006791799681
0.001853144137
-0.007660586897
-0.001374694556
-0.008503030536
-0.005188474508
-0.009113179127
-0.009539600062
-0.009142508781
-0.01419163509
-0.008128401084
-0.01847494661
-0.005711156737
-0.02090940997
-0.002318284803
-0.01872395159
-0.009028145164
-0.0005003771253
0.003909381118
-0.001151296801
0.008330596716
-0.00167482165
0.01065150115
-0.001981641261
0.01159285307
-0.002095673655
0.0117198424
-0.002075737066
0.0113502574
-0.001988478733
0.01064362223
-0.001901152951
0.009658258058
-0.001878928811
0.008388610439
-0.001985972793
0.006795665686
-0.002282468584
0.004819593458
-0.002818757281
0.002389432855
-0.003622153622
-0.0005712981975
-0.004668844153
-0.004141783964
-0.005834636028
-0.008373808178
-0.00680766456
-0.01321860655
-0.007016669391
-0.01826594178
-0.005716401305
-0.02220967805
-0.002739567152
-0.02170078574
-0.01176771231
-0.0008308854778
0.004740266625
-0.001604833214
0.009104544473
-0.001950980058
0.010997648
-0.001839383817
0.01148125683
-0.001385436152
0.01126589473
-0.0007181332321
0.01068295448
4.82115869e-05
0.009877277396
0.0008164029899
0.008890066633
0.001495358925
0.007709654482
0.001998422509
0.006292602085
0.002238515985
0.004579499971
0.002128353481
0.002499595354
0.001583158766
-2.610348277e-05
0.0005450303605
-0.003103655558
-0.000984315619
-0.006844462197
-0.002828402619
-0.01137451955
-0.004459126599
-0.01663521779
-0.004810489863
-0.02185831478
-0.002944291016
-0.02356698458
-0.01471200332
-0.001465682613
0.006205949272
-0.002379876973
0.01001873885
-0.002373445514
0.01099121657
-0.001603542833
0.01071135418
-0.0003496275494
0.01001197947
0.001163641212
0.009169685715
0.002771840549
0.00826907804
0.004349532582
0.007312374567
0.005791622189
0.006267564839
0.006998013486
0.005086210756
0.007865491999
0.003712021433
0.008282284179
0.002082803158
0.008123821282
0.0001323594052
0.007264495953
-0.002244330233
0.005585212376
-0.005165178622
0.003073872479
-0.008863179653
7.897155679e-05
-0.01364031687
-0.002445747637
-0.01933359559
-0.002601078114
-0.0234116541
-0.01731308143
-0.002365504029
0.008571453325
-0.002963808896
0.0106170437
-0.001922814454
0.009950222143
8.111472866e-05
0.008707425023
0.002534886364
0.007558207853
0.005140254808
0.006564317276
0.007719752554
0.005689580285
0.01015462044
0.004877506669
0.01234957241
0.004072612839
0.01421200127
0.003223781884
0.01564053928
0.00228348341
0.01651758819
0.001205754248
0.01669709899
-4.715140439e-05
0.0160271257
-0.001574356946
0.01430508961
-0.00344314253
0.0113328304
-0.005890920442
0.00705561341
-0.009363099872
0.00220162344
-0.01447960561
-0.00102732064
-0.02018271001
-0.01834040207
-0.002150342845
0.01072179617
-7.199470238e-05
0.00853869552
0.003741898311
0.006136329114
0.007719772567
0.00472955077
0.01156187059
0.003716109844
0.01514100998
0.002985177904
0.01839885547
0.002431734813
0.02130155476
0.001974807396
0.02381243293
0.001561734693
0.02587973409
0.001156480741
0.02743056834
0.0007326491827
0.02836472763
0.0002715949655
0.02857561704
-0.0002580407947
0.02788766493
-0.0008864048314
0.02609934105
-0.001654818649
0.02290826549
-0.002699844881
0.0179069667
-0.004361801081
0.01076690806
-0.007339546965
0.002912180328
-0.01232798228
-0.01542822174
0.01072179614
0.01926049164
0.02539682075
0.03012637154
0.03384248141
0.03682765934
0.03925939417
0.04123420159
0.0427959363
0.04395241706
0.04468506625
0.04495666122
0.04469862043
0.0438122156
0.04215739695
0.03945755207
0.03509575099
0.02775620402
0.01542822174
)
;

boundaryField
{
    movingWall
    {
        type            calculated;
        value           uniform 0;
    }
    fixedWalls
    {
        type            calculated;
        value           uniform 0;
    }
    frontAndBack
    {
        type            empty;
    }
}


// ************************************************************************* //
