/*--------------------------------*- C++ -*----------------------------------*\
  =========                 |
  \\      /  F ield         | OpenFOAM: The Open Source CFD Toolbox
   \\    /   O peration     | Website:  https://openfoam.org
    \\  /    A nd           | Version:  13
     \\/     M anipulation  |
\*---------------------------------------------------------------------------*/
FoamFile
{
    format      ascii;
    class       volVectorField;
    location    "37";
    object      U_0;
}
// * * * * * * * * * * * * * * * * * * * * * * * * * * * * * * * * * * * * * //

dimensions      [0 1 -1 0 0 0 0];

internalField   nonuniform List<vector> 
400
(
(1.099710618e-05 -3.783786223e-05 0)
(-0.0006661045865 0.0004130416213 -1.550721787e-23)
(-0.0021853768 0.0009203933825 0)
(-0.004047833145 0.001312780544 0)
(-0.005971867716 0.001535065365 6.8447454e-25)
(-0.007762782423 0.001569847379 4.151688017e-24)
(-0.009284544131 0.001423563211 -7.371965512e-24)
(-0.01043593966 0.00111972323 7.532412161e-24)
(-0.01113681181 0.0006960830285 -2.095598904e-25)
(-0.01132710856 0.0002030784331 -3.994916548e-24)
(-0.0109717701 -0.000300232733 5.803994494e-24)
(-0.01007232631 -0.0007475159105 -5.929928593e-23)
(-0.008679879392 -0.001075562668 -6.553019329e-23)
(-0.00690285282 -0.001233044566 -7.784509674e-23)
(-0.004910738071 -0.001192638622 4.573699362e-24)
(-0.002927232133 -0.0009619203078 -4.138054666e-24)
(-0.001205299983 -0.0005912114014 -1.998848685e-22)
(-1.906999942e-05 -0.0001698827004 0)
(0.0005181522963 0.0001720857148 1.509920483e-25)
(0.0002227505998 0.0003059790788 -2.556854367e-24)
(-0.0002633671332 0.0008289611807 1.383447668e-25)
(-0.002703309331 0.003383837509 1.560508511e-23)
(-0.006907278126 0.005604497741 1.554508717e-25)
(-0.01195231907 0.007008204549 -8.493837405e-25)
(-0.01713504155 0.007553773498 1.161882113e-24)
(-0.02197534948 0.007294197709 1.306590369e-23)
(-0.02611075438 0.006321892895 1.391705613e-24)
(-0.02926564008 0.00475419254 -7.284034103e-24)
(-0.03122672281 0.002737151888 1.015372485e-23)
(-0.03184200293 0.0004524064556 4.510297696e-24)
(-0.03102760813 -0.001884143496 -6.319297197e-24)
(-0.02879316081 -0.004023027941 2.96215819e-24)
(-0.02527137929 -0.005708352717 3.895718769e-23)
(-0.02073194592 -0.006707407681 -1.954867908e-24)
(-0.01558962501 -0.006854138514 3.75466399e-24)
(-0.0103851341 -0.006097463239 -9.741549609e-23)
(-0.00573027344 -0.004546186242 9.638165058e-23)
(-0.002233368833 -0.002507419388 -3.96203415e-25)
(-0.0001817770176 -0.0005023727693 4.061957156e-25)
(8.343443238e-05 0.00060992603 0)
(-0.0004188243083 0.002935075954 -2.910911503e-25)
(-0.004647876157 0.008804010025 1.702743261e-23)
(-0.01137195973 0.01324041805 -8.277147412e-24)
(-0.01932728812 0.01579203535 -2.074801306e-25)
(-0.02747411146 0.01652999525 2.038274989e-25)
(-0.03511777982 0.01564441236 6.911566369e-27)
(-0.04171343717 0.01335997249 -1.224044752e-24)
(-0.04683570451 0.009919768675 -4.553675931e-25)
(-0.05014987606 0.005602432268 -1.063196173e-23)
(-0.05141230616 0.0007444210024 0)
(-0.05047792065 -0.004241778817 0)
(-0.04733705241 -0.008887184351 2.671143057e-23)
(-0.04215927042 -0.01268176594 2.813175132e-23)
(-0.03531436749 -0.01513604783 -1.646263301e-24)
(-0.02738995804 -0.01586189171 4.846192336e-23)
(-0.01917005671 -0.01467333843 9.419836495e-23)
(-0.01156090735 -0.01169360161 3.976310871e-23)
(-0.005465413365 -0.007450742049 4.143712536e-25)
(-0.001451101201 -0.002936043296 1.072842864e-25)
(-9.072823064e-05 0.0002258773122 0)
(-0.0005024635761 0.006045346928 -4.249394845e-23)
(-0.006402739634 0.01637074896 -1.69296647e-23)
(-0.01553502166 0.02355932676 8.204005304e-24)
(-0.02627911476 0.02744161644 0)
(-0.03728745856 0.0283210126 0)
(-0.04769036262 0.02658771754 0)
(-0.05679661522 0.02263119743 -4.474883242e-26)
(-0.06405382307 0.01683608925 -2.135395195e-24)
(-0.06901079675 0.009622182665 0)
(-0.07130826079 0.001491051482 1.635815848e-24)
(-0.0707085186 -0.0069365005 2.802967586e-25)
(-0.06713037933 -0.0149301837 -2.810815827e-25)
(-0.06069904325 -0.02166727603 0)
(-0.05180749462 -0.02631605163 4.133532822e-23)
(-0.04114990846 -0.02816070291 -4.681895115e-23)
(-0.0297196968 -0.02677371722 -2.762267583e-23)
(-0.01873716433 -0.02221530139 -3.961465417e-23)
(-0.009488028352 -0.01521921972 7.795964063e-25)
(-0.002976881064 -0.007298193897 9.789726673e-23)
(-0.0002318805486 -0.0008661677916 0)
(-0.0005316132794 0.01009501231 4.270059563e-23)
(-0.007983591387 0.02595218656 4.784428658e-25)
(-0.01939687038 0.03642881602 -4.675153663e-25)
(-0.03282381639 0.04185519354 0)
(-0.04664687809 0.04289483918 7.781901511e-25)
(-0.05985228117 0.040200729 -7.674002754e-25)
(-0.07163289519 0.03434740801 3.672016825e-23)
(-0.08132749147 0.02585663538 1.847942677e-23)
(-0.08836598833 0.01527298151 6.238150799e-24)
(-0.0922546728 0.003246148693 -1.637721606e-24)
(-0.09260377623 -0.009407827402 0)
(-0.0891755352 -0.02167477259 4.371053481e-25)
(-0.0819597748 -0.03236744137 1.009151959e-23)
(-0.0712688392 -0.04021249167 -4.349581513e-23)
(-0.0578201759 -0.04402045408 1.933074296e-24)
(-0.0427858208 -0.04294828565 4.217887026e-23)
(-0.02775449807 -0.03683346338 -3.842769337e-25)
(-0.01455062107 -0.02652720621 0)
(-0.004859462242 -0.01408454349 5.436525492e-23)
(-0.0003641486349 -0.002846953319 -2.565013832e-22)
(-0.0005272208983 0.01499927214 9.840816755e-23)
(-0.009377923055 0.03739021042 -4.907302387e-25)
(-0.02288182212 0.05170221351 0)
(-0.03883042554 0.05894181311 0)
(-0.05538655383 0.06025572857 -8.731799411e-23)
(-0.07142874885 0.05661899512 -8.498759658e-23)
(-0.08606652021 0.04880167569 -4.06724439e-23)
(-0.09855083616 0.03743979744 -1.50424507e-23)
(-0.1081945059 0.02315983671 -5.368271308e-24)
(-0.1143444474 0.006709681265 -8.174636935e-24)
(-0.116404596 -0.01093291485 6.600730357e-24)
(-0.1138937167 -0.02848943982 8.82596447e-24)
(-0.1065486766 -0.04437044924 -1.892315659e-23)
(-0.09446802167 -0.05675332309 4.604720552e-24)
(-0.07826855336 -0.06378297232 0)
(-0.05922894247 -0.06393494152 -1.573189671e-23)
(-0.03933981118 -0.05653815292 -2.419315904e-26)
(-0.02114188404 -0.04235808482 0)
(-0.007318701453 -0.02398229125 -1.52058078e-22)
(-0.0005216163589 -0.005925544794 6.056139187e-22)
(-0.0004990819009 0.02064573885 -9.773774684e-23)
(-0.01052950719 0.05045436535 2.831912915e-22)
(-0.02582956836 0.06912509565 1.526829918e-22)
(-0.04402137294 0.07849255594 3.619195839e-24)
(-0.06310737735 0.08029474171 -7.319382333e-23)
(-0.08190403218 0.07588040941 9.043194621e-23)
(-0.09947761423 0.0662168914 -3.590114182e-24)
(-0.1150227121 0.05201694036 -1.729122175e-24)
(-0.1277518907 0.03392358061 2.524090435e-24)
(-0.1368472323 0.01270233391 7.382294117e-24)
(-0.141471025 -0.0105878152 -6.50050119e-24)
(-0.1408247923 -0.03446023043 -9.787316402e-24)
(-0.1342745729 -0.05692769994 -3.261747605e-23)
(-0.1215450026 -0.0755331428 -3.661030768e-23)
(-0.1029672477 -0.08754258581 5.645029216e-25)
(-0.07976368496 -0.09039207825 0)
(-0.05426681511 -0.08244512225 0)
(-0.02987160391 -0.06397735806 -2.905964281e-24)
(-0.01066284939 -0.03798794191 2.970411287e-24)
(-0.000735093356 -0.01050089405 1.027872791e-22)
(-0.0004479164188 0.02687250307 0)
(-0.01134922984 0.06480755581 2.001982353e-22)
(-0.028015991 0.08829614652 8.962029433e-23)
(-0.0479985639 0.1001234664 0)
(-0.06920600651 0.1027076281 1.569856812e-22)
(-0.09044371471 0.0978157624 0)
(-0.1107831473 0.08661101165 -1.428374185e-22)
(-0.1294093528 0.06983949116 6.51546963e-24)
(-0.1454771382 0.04808231653 0)
(-0.1580351553 0.02201755757 0)
(-0.1660133198 -0.007334430837 -1.374388938e-24)
(-0.168267131 -0.03838838209 -9.316559732e-25)
(-0.1637064466 -0.06883973831 1.491951177e-22)
(-0.1515208551 -0.09558273393 -4.704637446e-23)
(-0.1315134372 -0.1148298408 -2.560882026e-24)
(-0.1045595928 -0.122570317 1.534638141e-24)
(-0.07309348833 -0.1155517759 -1.55884597e-24)
(-0.04135020866 -0.09283114057 0)
(-0.01525230032 -0.05740766806 3.203762838e-24)
(-0.001044308781 -0.01714714277 -1.012901404e-21)
(-0.000374466547 0.03346303551 0)
(-0.01175005873 0.07998916513 -1.128254385e-22)
(-0.02920707469 0.1086390648 -6.191086166e-22)
(-0.05031744261 0.1232233669 -3.755275323e-22)
(-0.07296316365 0.1269096722 0)
(-0.09598958809 0.1219255366 4.119428664e-22)
(-0.1185273317 0.1096348427 1.260912518e-22)
(-0.1398146231 0.09078244399 -5.581791321e-24)
(-0.1590221347 0.0658139246 5.554164455e-24)
(-0.1751460794 0.03520881199 0)
(-0.1869559776 -0.0001967382365 2.912111857e-23)
(-0.1930172445 -0.03889752727 4.695794168e-24)
(-0.191780972 -0.07843886324 -1.076794272e-22)
(-0.1817874255 -0.1151865114 8.004069181e-23)
(-0.1620570272 -0.1442599178 -2.419717285e-22)
(-0.1327061863 -0.1598548343 0)
(-0.0957788712 -0.156311263 0)
(-0.05601632414 -0.1302980884 0)
(-0.02147858874 -0.08381133917 0)
(-0.001500384382 -0.02665515943 5.572054148e-22)
(-0.0002873900269 0.04016076701 0)
(-0.01169359515 0.09543609104 -3.492988449e-22)
(-0.02924438018 0.1294073307 8.932739931e-22)
(-0.05060946812 0.1469298818 3.617148587e-22)
(-0.0737008196 0.1519748335 0)
(-0.09745150227 0.1472757665 -3.862528146e-22)
(-0.1211069727 0.1344191714 -3.174413384e-23)
(-0.144032466 0.1141393157 3.333091298e-22)
(-0.1655143101 0.08670005802 1.769467744e-22)
(-0.1846248383 0.05229123512 -4.060136422e-23)
(-0.2001325673 0.01141717022 1.656821861e-23)
(-0.2104622307 -0.03471422571 -8.265201939e-24)
(-0.2137208395 -0.08376561396 3.371843118e-22)
(-0.2078215368 -0.1318756078 0)
(-0.190823841 -0.1732755834 2.420886297e-22)
(-0.1616335623 -0.2002593081 5.774685534e-24)
(-0.1211662597 -0.2040121413 -5.860803175e-24)
(-0.07384989175 -0.1772119713 1.548417039e-22)
(-0.02971786554 -0.118864217 -5.435365057e-24)
(-0.002179544955 -0.04005398219 0)
(-0.0002117200148 0.04671638959 0)
(-0.01125001079 0.1105497878 0)
(-0.02815624411 0.1497354672 -5.022729213e-22)
(-0.04874479202 0.1701517242 -1.880989021e-23)
(-0.07100086466 0.1766256798 2.038369268e-23)
(-0.0939945124 0.1724526208 -2.014301877e-23)
(-0.1171434266 0.1594870749 -2.316874919e-23)
(-0.1400179463 0.1384804919 -3.029811083e-22)
(-0.1621328846 0.1095160632 6.698613511e-23)
(-0.1827958993 0.07245186946 4.513160035e-23)
(-0.2009835515 0.02734929609 -4.5777022e-23)
(-0.2152270222 -0.02508696277 0)
(-0.2235562169 -0.08298349261 -7.839608678e-23)
(-0.2234632147 -0.1427257072 0)
(-0.2120679375 -0.1981820585 -3.739546961e-22)
(-0.1867434485 -0.2400773381 5.244924517e-22)
(-0.1464438242 -0.2560773101 0)
(-0.09394567236 -0.2331209234 -1.493964088e-22)
(-0.04022000737 -0.1639613473 1.937519762e-22)
(-0.003201100063 -0.05861062466 -3.41149955e-22)
(-0.0002015411131 0.05297584101 0)
(-0.01067261983 0.1248172147 9.182838404e-22)
(-0.02628446895 0.1687424256 -2.440676277e-23)
(-0.04501108144 0.1916454783 9.193309551e-22)
(-0.06494597935 0.1992920709 -2.512077629e-23)
(-0.08536629049 0.195610402 2.838835466e-23)
(-0.1059305706 0.1827886613 -2.812921605e-23)
(-0.126492425 0.1616583356 -1.660913755e-23)
(-0.1468996915 0.1321762226 -5.260216309e-22)
(-0.1668458231 0.09389646664 -8.90660741e-24)
(-0.1857303104 0.04640577038 9.660174276e-24)
(-0.2024781766 -0.01023783389 3.313071568e-22)
(-0.2154154688 -0.07499818455 -5.820726383e-22)
(-0.2220209775 -0.1450311609 0)
(-0.2188032141 -0.2146760354 8.887295278e-22)
(-0.2016257536 -0.2740016134 -4.940858946e-22)
(-0.1668639181 -0.307581166 -1.572214109e-23)
(-0.114022007 -0.2953811636 0)
(-0.05288481828 -0.2195802372 -1.890153972e-22)
(-0.00474918792 -0.08377277144 3.360557849e-22)
(-0.0003641987963 0.05902316877 1.551005826e-23)
(-0.01049574165 0.1379881281 -8.764167503e-22)
(-0.02441390026 0.1856803798 -1.157056013e-21)
(-0.04026725201 0.2101384413 -8.628960269e-22)
(-0.05630730642 0.2182348585 0)
(-0.07214857802 0.2146189991 3.513796845e-23)
(-0.08779223051 0.2018791747 -7.294849776e-23)
(-0.103456295 0.181000548 5.867872119e-23)
(-0.1193984046 0.151899719 3.021360386e-22)
(-0.1357931732 0.113915059 -1.128193692e-23)
(-0.1526082514 0.0662142578 0)
(-0.169452157 0.008177216665 -3.603922971e-22)
(-0.1852760784 -0.0601598599 7.515655702e-22)
(-0.1980448685 -0.1372746812 8.831689862e-22)
(-0.2043546401 -0.2189261664 -5.296613329e-22)
(-0.1990977709 -0.2959712668 5.162675884e-22)
(-0.1760605383 -0.3514072328 1.078223989e-23)
(-0.1300890646 -0.3584150526 -1.095538886e-23)
(-0.06688803247 -0.2843276302 -8.215626331e-23)
(-0.007083319725 -0.1169964327 0)
(-0.0009095778917 0.06540040833 -1.911482587e-23)
(-0.01167592036 0.1502816223 -1.326962834e-21)
(-0.02388882791 0.200065929 1.094234586e-21)
(-0.03601341573 0.2244216662 6.734915053e-22)
(-0.04657310295 0.2316587949 6.014618814e-22)
(-0.0557704039 0.2272393447 6.643943298e-22)
(-0.064112479 0.2141774694 -4.458669092e-23)
(-0.07227564002 0.1936494277 -3.461331232e-22)
(-0.08096975466 0.1656028288 2.152159074e-22)
(-0.09087194942 0.1292707393 0)
(-0.102554772 0.08353083393 0)
(-0.1163622422 0.02720012032 2.655393615e-22)
(-0.1321589815 -0.04062004462 8.194327483e-23)
(-0.1489252554 -0.1200128138 -2.821617367e-22)
(-0.1641284486 -0.2089300509 -5.411263198e-23)
(-0.1727877781 -0.3006992314 1.301951331e-22)
(-0.1670311414 -0.3793328893 -3.400489718e-22)
(-0.1365292494 -0.4136451753 -1.593993472e-23)
(-0.08018250259 -0.3538326011 8.204398587e-23)
(-0.01050762286 -0.1594130476 -6.032191069e-22)
(-0.002260498714 0.07348883026 0)
(-0.01580356049 0.1626521627 2.145870451e-21)
(-0.02665043495 0.2117904518 0)
(-0.03422341079 0.2333947016 -1.351805127e-21)
(-0.03759400486 0.2377766575 6.184057898e-23)
(-0.03799687673 0.2312553309 -6.193081776e-22)
(-0.03668268647 0.2171898854 -4.756275677e-22)
(-0.03489039314 0.1968934408 8.301240674e-22)
(-0.0337884103 0.1703342369 -1.885695092e-22)
(-0.03449879611 0.1367221124 0)
(-0.03811575864 0.09479674586 0)
(-0.04564995492 0.04304287861 2.410615913e-23)
(-0.05790807219 -0.02013779798 -6.007191019e-22)
(-0.07514601254 -0.09620648758 -4.309561111e-22)
(-0.09645177401 -0.185555603 4.637855823e-22)
(-0.1183462817 -0.285356763 -6.488720486e-22)
(-0.1332715531 -0.3838386386 9.11993425e-23)
(-0.1265351076 -0.4504358556 2.937487728e-23)
(-0.08899154389 -0.419853622 5.660458976e-22)
(-0.01526917947 -0.2111719646 6.020823752e-22)
(-0.005180899829 0.08598045727 0)
(-0.02525551131 0.1766291097 1.465579737e-22)
(-0.03483408985 0.2205961395 -4.917135873e-23)
(-0.03640015493 0.2354859152 7.64291553e-22)
(-0.03018485242 0.2343406552 -7.005363853e-22)
(-0.01916582103 0.2241603708 4.746471988e-23)
(-0.005615180099 0.2083525716 -1.018608135e-22)
(0.008569575801 0.1881241018 -3.389882828e-22)
(0.02179882855 0.163391126 2.062819624e-22)
(0.03262778166 0.1333242775 0)
(0.03958455358 0.09664087029 0)
(0.04117010242 0.05174057545 -2.902664232e-22)
(0.03578481022 -0.003255385866 0)
(0.02198182133 -0.07058359664 -5.512180272e-22)
(-0.001264868605 -0.1525735399 -1.492375714e-23)
(-0.03310471782 -0.250594975 2.559731891e-23)
(-0.06909237341 -0.3599341421 2.203127829e-22)
(-0.09227828003 -0.4575424434 4.788182693e-24)
(-0.08718090329 -0.469812931 -5.789428409e-22)
(-0.02103127191 -0.2698972228 0)
(-0.01111631574 0.1085974977 0)
(-0.0424890222 0.1947151631 -8.848466152e-22)
(-0.0479552982 0.2258195416 -5.41103226e-22)
(-0.0391953744 0.2282135425 4.543809227e-22)
(-0.01877832352 0.2182327993 -1.709985289e-24)
(0.007664288491 0.2028220225 -4.561041142e-23)
(0.03667990506 0.1847619669 5.696671383e-22)
(0.06582995476 0.1647118155 -2.76688592e-23)
(0.093271277 0.1423128164 -2.069778501e-22)
(0.1173891293 0.1166274967 3.14220903e-23)
(0.1365461388 0.08641144506 -3.425912716e-23)
(0.1489668991 0.05017669861 -3.690589768e-23)
(0.1525275533 0.006159176156 3.205629666e-22)
(0.1449366815 -0.04796126136 6.119598576e-22)
(0.1235159603 -0.1153052831 -5.101163948e-22)
(0.0863353188 -0.2004195587 -1.61605135e-22)
(0.03199087928 -0.3067806542 1.531314936e-22)
(-0.02362124133 -0.4239837094 7.293662268e-23)
(-0.06492413451 -0.4871612732 1.913293041e-21)
(-0.02509971759 -0.3291544699 2.954993076e-21)
(-0.02004680474 0.1460727423 -4.390203141e-23)
(-0.06416406404 0.2112955847 4.417375862e-23)
(-0.05070231093 0.2177300445 1.000187248e-21)
(-0.01934098361 0.2014679918 -8.270551482e-24)
(0.02414463451 0.1809076096 0)
(0.07154120125 0.1606933266 4.363713747e-23)
(0.1190703176 0.1416495425 -2.273847631e-22)
(0.1644767077 0.1233181776 -9.027940082e-23)
(0.2062250893 0.1048117277 3.680728161e-23)
(0.242964276 0.08507140193 -1.701652725e-23)
(0.2732207333 0.06296148015 3.429966019e-23)
(0.2952535888 0.03726294316 -6.592672711e-23)
(0.3066970868 0.006535073798 -9.303897069e-23)
(0.304973815 -0.03087769496 1.51704164e-22)
(0.2863936116 -0.07786290504 0)
(0.2470567977 -0.1399300336 1.505603506e-22)
(0.1810922148 -0.2266299736 2.560014811e-22)
(0.09604449585 -0.3443894927 0)
(-0.006697619276 -0.4552210196 -3.67563718e-21)
(-0.01922408258 -0.3777537568 -2.892622496e-21)
(-0.02591951324 0.2276828817 -9.514201053e-22)
(-0.03998324521 0.2238216534 -1.388975109e-22)
(0.03656136897 0.1810585359 -2.335578859e-22)
(0.109050301 0.1451059071 -1.193740673e-22)
(0.1817191127 0.1172445462 -4.2958183e-23)
(0.249009063 0.09627907253 9.783158066e-23)
(0.3100336568 0.08002510074 -1.408589082e-22)
(0.3646209173 0.06656815086 1.297172861e-22)
(0.4126252321 0.05449178769 -8.620106148e-23)
(0.4536250126 0.04270894937 1.132184568e-25)
(0.486787856 0.03032298544 1.5277397e-23)
(0.510745122 0.01652902061 7.997194725e-23)
(0.5236597336 0.0005365165993 -1.811121399e-22)
(0.5231797921 -0.01863373024 -1.617143772e-22)
(0.5052323351 -0.0428647877 -4.262937543e-23)
(0.4658715032 -0.07633231063 0)
(0.3952696461 -0.128608938 -1.846481916e-22)
(0.2916071019 -0.2208468096 8.148767988e-22)
(0.1197455088 -0.3525016901 1.631602326e-21)
(0.02670547214 -0.3775497976 2.172656281e-21)
(0.214289447 0.1347447212 9.864985662e-22)
(0.2776311191 0.09870503633 0)
(0.4316592298 0.05810414859 -2.594317495e-22)
(0.5304749347 0.0384626496 -1.741663417e-22)
(0.6016965742 0.02623419092 0)
(0.6571198934 0.01831923434 -6.00907693e-23)
(0.7015213562 0.01313600801 6.377986471e-23)
(0.7376042446 0.009542125964 -1.800152795e-23)
(0.7669368354 0.006804463384 2.885968469e-23)
(0.7902106622 0.004464743859 2.315029322e-23)
(0.8074554953 0.002221319977 0)
(0.8182621307 -0.0001500747342 -2.873028963e-23)
(0.8216499681 -0.002723847968 0)
(0.8162394176 -0.005712668401 2.738142884e-23)
(0.7991333139 -0.009611382682 1.421683653e-23)
(0.7679986343 -0.01500255103 -5.799411978e-23)
(0.7106555756 -0.02502519964 -2.535663587e-22)
(0.623518398 -0.04204285418 -6.918105326e-22)
(0.4230091019 -0.09182968091 0)
(0.2705674689 -0.1524021841 -2.119484137e-21)
)
;

boundaryField
{
    movingWall
    {
        type            calculated;
        value           uniform (1 0 0);
    }
    fixedWalls
    {
        type            calculated;
        value           uniform (0 0 0);
    }
    frontAndBack
    {
        type            empty;
    }
}


// ************************************************************************* //
