/*--------------------------------*- C++ -*----------------------------------*\
  =========                 |
  \\      /  F ield         | OpenFOAM: The Open Source CFD Toolbox
   \\    /   O peration     | Website:  https://openfoam.org
    \\  /    A nd           | Version:  13
     \\/     M anipulation  |
\*---------------------------------------------------------------------------*/
FoamFile
{
    format      ascii;
    class       vectorField;
    location    "37";
    object      U_all;
}
// * * * * * * * * * * * * * * * * * * * * * * * * * * * * * * * * * * * * * //


400
(
(1.09971638e-05 -3.78378657e-05 0)
(-0.0006661045403 0.0004130416017 -1.550717627e-23)
(-0.002185376821 0.0009203933397 0)
(-0.004047833205 0.00131278054 0)
(-0.005971867787 0.001535065449 6.844834722e-25)
(-0.007762782381 0.001569847495 4.150911389e-24)
(-0.009284543977 0.001423563252 -7.370802232e-24)
(-0.01043593956 0.001119723151 7.533302177e-24)
(-0.01113681193 0.0006960828811 -2.095571926e-25)
(-0.01132710886 0.0002030783032 -3.994957976e-24)
(-0.0109717704 -0.0003002327457 5.803923328e-24)
(-0.01007232644 -0.0007475158261 -5.929803137e-23)
(-0.00867987929 -0.001075562555 -6.552940909e-23)
(-0.006902852555 -0.001233044505 -7.784590526e-23)
(-0.004910737722 -0.001192638679 4.573757405e-24)
(-0.002927231679 -0.0009619205119 -4.138096674e-24)
(-0.00120529933 -0.0005912117398 -1.998855215e-22)
(-1.906913791e-05 -0.0001698831036 0)
(0.0005181532076 0.0001720853358 1.509911626e-25)
(0.00022275103 0.0003059788795 -2.556757081e-24)
(-0.000263367088 0.0008289612313 1.383442502e-25)
(-0.002703309352 0.003383837589 1.560504752e-23)
(-0.006907278159 0.00560449774 1.554412979e-25)
(-0.01195231894 0.007008204482 -8.493921051e-25)
(-0.01713504141 0.00755377349 1.161926239e-24)
(-0.02197534949 0.007294197802 1.306664954e-23)
(-0.02611075458 0.006321893015 1.390518005e-24)
(-0.02926564036 0.004754192596 -7.284984222e-24)
(-0.03122672305 0.002737151872 1.015394266e-23)
(-0.03184200301 0.0004524064604 4.510353003e-24)
(-0.03102760807 -0.001884143456 -6.31922167e-24)
(-0.02879316073 -0.004023027835 2.961552722e-24)
(-0.02527137925 -0.005708352614 3.895662991e-23)
(-0.02073194591 -0.006707407714 -1.954847012e-24)
(-0.01558962495 -0.00685413881 3.754643332e-24)
(-0.01038513383 -0.006097463845 -9.741568229e-23)
(-0.005730272831 -0.00454618708 9.638207977e-23)
(-0.002233367927 -0.002507420269 -3.961981982e-25)
(-0.0001817758652 -0.0005023735113 4.061903747e-25)
(8.343520188e-05 0.0006099253502 0)
(-0.000418824258 0.002935076004 -2.910854623e-25)
(-0.004647876167 0.008804010109 1.702632601e-23)
(-0.01137195987 0.0132404182 -8.278191004e-24)
(-0.01932728817 0.01579203543 -2.074488562e-25)
(-0.02747411142 0.0165299952 2.037968843e-25)
(-0.03511777975 0.01564441228 6.894457093e-27)
(-0.04171343715 0.01335997246 -1.222953544e-24)
(-0.04683570461 0.009919768732 -4.552844551e-25)
(-0.05014987624 0.005602432409 -1.063221048e-23)
(-0.05141230638 0.0007444212222 0)
(-0.05047792085 -0.004241778614 0)
(-0.04733705252 -0.008887184179 2.671151432e-23)
(-0.04215927055 -0.01268176585 2.813144822e-23)
(-0.03531436771 -0.0151360479 -1.646248789e-24)
(-0.02738995828 -0.01586189203 4.846162328e-23)
(-0.01917005673 -0.01467333901 9.419854188e-23)
(-0.01156090687 -0.01169360239 3.976324415e-23)
(-0.005465412322 -0.007450742841 4.143746523e-25)
(-0.001451099979 -0.002936043977 1.072843524e-25)
(-9.072742115e-05 0.0002258763875 0)
(-0.0005024635504 0.006045346948 -4.249494905e-23)
(-0.006402739624 0.01637074885 -1.692855405e-23)
(-0.01553502172 0.0235593268 8.205036312e-24)
(-0.02627911483 0.02744161656 0)
(-0.03728745859 0.02832101274 0)
(-0.04769036262 0.02658771766 0)
(-0.05679661527 0.02263119749 -4.475683377e-26)
(-0.0640538232 0.01683608922 -2.135256524e-24)
(-0.06901079691 0.009622182568 0)
(-0.07130826091 0.001491051378 1.635754051e-24)
(-0.07070851865 -0.00693650046 2.802970714e-25)
(-0.06713037939 -0.01493018351 -2.810818967e-25)
(-0.06069904347 -0.02166727575 0)
(-0.0518074951 -0.02631605138 4.133551502e-23)
(-0.04114990906 -0.02816070278 -4.68186656e-23)
(-0.02971969718 -0.02677371723 -2.762263675e-23)
(-0.01873716414 -0.02221530154 -3.961479566e-23)
(-0.009488027525 -0.01521922001 7.795964076e-25)
(-0.002976880065 -0.007298194401 9.789733774e-23)
(-0.0002318799013 -0.0008661686128 0)
(-0.0005316133048 0.01009501239 4.270159399e-23)
(-0.007983591447 0.0259521865 4.784357735e-25)
(-0.01939687038 0.03642881597 -4.675084699e-25)
(-0.0328238164 0.04185519352 0)
(-0.04664687806 0.04289483921 7.782024005e-25)
(-0.05985228118 0.04020072908 -7.67412328e-25)
(-0.07163289531 0.03434740811 3.671998876e-23)
(-0.08132749171 0.02585663545 1.847902906e-23)
(-0.08836598859 0.01527298151 6.238044779e-24)
(-0.09225467291 0.003246148616 -1.637659721e-24)
(-0.09260377617 -0.009407827452 0)
(-0.08917553511 -0.02167477253 4.371019653e-25)
(-0.08195977492 -0.03236744115 1.009142629e-23)
(-0.07126883965 -0.0402124913 -4.349600898e-23)
(-0.05782017658 -0.04402045362 1.93308285e-24)
(-0.04278582139 -0.04294828518 4.217890133e-23)
(-0.02775449822 -0.036833463 -3.84277699e-25)
(-0.01455062068 -0.02652720606 0)
(-0.004859461702 -0.01408454371 5.436535512e-23)
(-0.0003641482793 -0.002846953831 -2.565013263e-22)
(-0.0005272209759 0.01499927218 9.84091634e-23)
(-0.009377923197 0.03739021057 -4.907268975e-25)
(-0.0228818222 0.05170221355 0)
(-0.03883042557 0.05894181311 0)
(-0.05538655379 0.06025572854 -8.731817573e-23)
(-0.07142874881 0.05661899509 -8.498807077e-23)
(-0.08606652031 0.04880167567 -4.067225725e-23)
(-0.09855083643 0.03743979742 -1.504219152e-23)
(-0.1081945062 0.02315983667 -5.368179156e-24)
(-0.1143444475 0.006709681199 -8.174597169e-24)
(-0.1164045959 -0.01093291494 6.600718762e-24)
(-0.1138937164 -0.02848943988 8.826004599e-24)
(-0.1065486765 -0.0443704492 -1.892319985e-23)
(-0.09446802192 -0.05675332287 4.604927376e-24)
(-0.0782685539 -0.06378297193 0)
(-0.05922894306 -0.063934941 -1.573196925e-23)
(-0.03933981155 -0.05653815241 -2.419133256e-26)
(-0.02114188408 -0.04235808451 0)
(-0.007318701338 -0.02398229126 -1.520582469e-22)
(-0.0005216162709 -0.005925544943 6.056139967e-22)
(-0.0004990819441 0.02064573876 -9.77387436e-23)
(-0.0105295073 0.05045436549 2.831922371e-22)
(-0.02582956853 0.06912509576 1.526829582e-22)
(-0.04402137303 0.07849255603 3.619182851e-24)
(-0.06310737734 0.08029474178 -7.319333712e-23)
(-0.08190403216 0.07588040945 9.043244788e-23)
(-0.09947761434 0.06621689138 -3.590125736e-24)
(-0.1150227124 0.05201694029 -1.729124156e-24)
(-0.127751891 0.03392358049 2.524091155e-24)
(-0.1368472325 0.01270233373 7.382255541e-24)
(-0.1414710249 -0.01058781544 -6.500488219e-24)
(-0.140824792 -0.03446023071 -9.787359761e-24)
(-0.1342745727 -0.05692770021 -3.261738905e-23)
(-0.1215450027 -0.07553314297 -3.661063357e-23)
(-0.102967248 -0.08754258581 5.645095093e-25)
(-0.0797636854 -0.09039207807 0)
(-0.05426681551 -0.08244512199 0)
(-0.02987160415 -0.06397735783 -2.905966099e-24)
(-0.01066284949 -0.03798794181 2.970413147e-24)
(-0.0007350934071 -0.01050089396 1.027873288e-22)
(-0.0004479163963 0.02687250302 0)
(-0.01134922989 0.06480755579 2.001980105e-22)
(-0.02801599117 0.08829614656 8.962068018e-23)
(-0.04799856396 0.1001234665 0)
(-0.06920600648 0.1027076282 1.569853894e-22)
(-0.0904437147 0.09781576257 0)
(-0.1107831475 0.08661101179 -1.42837401e-22)
(-0.1294093531 0.06983949122 6.515474233e-24)
(-0.1454771386 0.04808231647 0)
(-0.1580351555 0.02201755738 0)
(-0.1660133198 -0.007334431158 -1.37438807e-24)
(-0.1682671308 -0.03838838254 -9.316562909e-25)
(-0.1637064463 -0.06883973883 1.491951757e-22)
(-0.151520855 -0.09558273443 -4.704630556e-23)
(-0.1315134373 -0.1148298412 -2.560887299e-24)
(-0.1045595931 -0.1225703172 1.534641085e-24)
(-0.07309348859 -0.1155517759 -1.558848951e-24)
(-0.04135020888 -0.09283114052 0)
(-0.01525230044 -0.05740766796 3.203763882e-24)
(-0.001044308844 -0.01714714261 -1.012901704e-21)
(-0.0003744665502 0.03346303559 0)
(-0.01175005884 0.07998916509 -1.128262685e-22)
(-0.02920707481 0.1086390648 -6.191091617e-22)
(-0.05031744258 0.1232233669 -3.755278076e-22)
(-0.07296316352 0.1269096724 0)
(-0.095989588 0.1219255368 4.119428523e-22)
(-0.1185273318 0.1096348429 1.260912342e-22)
(-0.1398146235 0.09078244422 -5.581791454e-24)
(-0.1590221351 0.06581392475 5.554164586e-24)
(-0.1751460797 0.03520881199 0)
(-0.1869559777 -0.000196738419 2.912111734e-23)
(-0.1930172444 -0.03889752764 4.695793217e-24)
(-0.1917809718 -0.07843886375 -1.076794204e-22)
(-0.1817874253 -0.115186512 8.004073298e-23)
(-0.1620570271 -0.1442599183 -2.419717457e-22)
(-0.1327061863 -0.1598548347 0)
(-0.09577887129 -0.1563112632 0)
(-0.05601632423 -0.1302980885 0)
(-0.02147858877 -0.08381133913 0)
(-0.001500384399 -0.02665515933 5.572055286e-22)
(-0.0002873901058 0.04016076713 0)
(-0.01169359535 0.09543609111 -3.492987236e-22)
(-0.0292443803 0.1294073308 8.932740515e-22)
(-0.05060946805 0.1469298819 3.61715131e-22)
(-0.07370081936 0.1519748336 0)
(-0.09745150204 0.1472757666 -3.862528034e-22)
(-0.1211069727 0.1344191716 -3.174413367e-23)
(-0.1440324663 0.114139316 3.333091132e-22)
(-0.1655143105 0.08670005832 1.76946756e-22)
(-0.1846248388 0.05229123537 -4.060136069e-23)
(-0.2001325675 0.01141717033 1.656821668e-23)
(-0.2104622307 -0.03471422577 -8.265201093e-24)
(-0.2137208394 -0.0837656142 3.371842835e-22)
(-0.2078215366 -0.1318756081 0)
(-0.1908238409 -0.1732755838 2.42088647e-22)
(-0.1616335622 -0.2002593084 5.774685966e-24)
(-0.1211662596 -0.2040121415 -5.860803616e-24)
(-0.07384989174 -0.1772119714 1.548417225e-22)
(-0.02971786551 -0.118864217 -5.435365658e-24)
(-0.002179544934 -0.04005398218 0)
(-0.0002117201146 0.04671638967 0)
(-0.01125001102 0.1105497879 0)
(-0.02815624429 0.1497354673 -5.022727976e-22)
(-0.04874479197 0.1701517242 -1.880988592e-23)
(-0.07100086438 0.1766256798 2.038369776e-23)
(-0.09399451207 0.1724526208 -2.014302378e-23)
(-0.1171434264 0.1594870749 -2.316875173e-23)
(-0.1400179464 0.138480492 -3.029810895e-22)
(-0.1621328849 0.1095160635 6.698615279e-23)
(-0.1827958997 0.07245186983 4.513159631e-23)
(-0.2009835517 0.02734929644 -4.577701884e-23)
(-0.2152270224 -0.02508696253 0)
(-0.2235562169 -0.08298349253 -7.839606619e-23)
(-0.2234632147 -0.1427257072 0)
(-0.2120679374 -0.1981820587 -3.739546727e-22)
(-0.1867434485 -0.2400773382 5.24492404e-22)
(-0.1464438241 -0.2560773103 0)
(-0.0939456723 -0.2331209235 -1.493964268e-22)
(-0.04022000733 -0.1639613474 1.937519895e-22)
(-0.003201100036 -0.0586106247 -3.411499541e-22)
(-0.000201541188 0.05297584108 0)
(-0.01067262008 0.1248172149 9.182840559e-22)
(-0.0262844692 0.1687424257 -2.440676437e-23)
(-0.04501108144 0.1916454784 9.193308421e-22)
(-0.06494597909 0.1992920709 -2.512077327e-23)
(-0.08536629011 0.1956104019 2.838835829e-23)
(-0.1059305703 0.1827886612 -2.812921964e-23)
(-0.1264924248 0.1616583355 -1.660913896e-23)
(-0.1468996916 0.1321762227 -5.260216518e-22)
(-0.1668458233 0.0938964669 -8.906607621e-24)
(-0.1857303105 0.04640577072 9.660174094e-24)
(-0.2024781767 -0.01023783357 3.313071609e-22)
(-0.2154154688 -0.07499818432 -5.820726363e-22)
(-0.2220209775 -0.1450311607 0)
(-0.2188032141 -0.2146760354 8.887295079e-22)
(-0.2016257535 -0.2740016135 -4.940858499e-22)
(-0.166863918 -0.307581166 -1.572213996e-23)
(-0.114022007 -0.2953811637 0)
(-0.05288481825 -0.2195802373 -1.890154105e-22)
(-0.004749187909 -0.08377277149 3.36055784e-22)
(-0.0003641988687 0.05902316891 1.551006011e-23)
(-0.01049574193 0.1379881283 -8.764169606e-22)
(-0.02441390055 0.1856803799 -1.157056113e-21)
(-0.04026725206 0.2101384415 -8.628959167e-22)
(-0.0563073062 0.2182348586 0)
(-0.07214857766 0.2146189991 3.513796961e-23)
(-0.08779223014 0.2018791745 -7.294850224e-23)
(-0.1034562947 0.1810005478 5.867872648e-23)
(-0.1193984044 0.1518997189 3.021360598e-22)
(-0.1357931731 0.113915059 -1.128193775e-23)
(-0.1526082514 0.0662142579 0)
(-0.169452157 0.008177216816 -3.603923007e-22)
(-0.1852760785 -0.06015985975 7.515655881e-22)
(-0.1980448685 -0.1372746811 8.831690141e-22)
(-0.2043546401 -0.2189261664 -5.296613346e-22)
(-0.1990977709 -0.2959712668 5.162676002e-22)
(-0.1760605382 -0.3514072328 1.078223972e-23)
(-0.1300890646 -0.3584150527 -1.095538869e-23)
(-0.06688803246 -0.2843276303 -8.215624853e-23)
(-0.007083319728 -0.1169964328 0)
(-0.0009095779892 0.06540040851 -1.911482564e-23)
(-0.01167592065 0.1502816225 -1.326962875e-21)
(-0.0238888282 0.2000659294 1.09423468e-21)
(-0.03601341582 0.2244216666 6.734915091e-22)
(-0.0465731028 0.2316587952 6.01461859e-22)
(-0.05577040361 0.2272393448 6.643943108e-22)
(-0.06411247867 0.2141774693 -4.458669283e-23)
(-0.0722756397 0.1936494275 -3.461331355e-22)
(-0.08096975437 0.1656028286 2.152159177e-22)
(-0.09087194921 0.1292707391 0)
(-0.1025547719 0.08353083374 0)
(-0.1163622422 0.0272001202 2.655393712e-22)
(-0.1321589815 -0.04062004469 8.194327693e-23)
(-0.1489252554 -0.1200128139 -2.821617469e-22)
(-0.1641284485 -0.208930051 -5.411263379e-23)
(-0.172787778 -0.3006992314 1.301951417e-22)
(-0.1670311413 -0.3793328894 -3.400489867e-22)
(-0.1365292493 -0.4136451753 -1.593992396e-23)
(-0.08018250258 -0.3538326012 8.204397111e-23)
(-0.01050762287 -0.1594130477 -6.032190789e-22)
(-0.002260498816 0.0734888304 0)
(-0.01580356073 0.1626521629 2.145870478e-21)
(-0.02665043514 0.2117904522 0)
(-0.03422341087 0.2333947021 -1.351805137e-21)
(-0.03759400481 0.2377766579 6.184059028e-23)
(-0.03799687658 0.2312553311 -6.193081594e-22)
(-0.03668268627 0.2171898855 -4.756275603e-22)
(-0.03489039289 0.1968934407 8.301240794e-22)
(-0.03378841003 0.1703342366 -1.885695189e-22)
(-0.03449879585 0.136722112 0)
(-0.03811575843 0.09479674551 0)
(-0.04564995477 0.0430428783 2.410615535e-23)
(-0.05790807209 -0.02013779821 -6.007191205e-22)
(-0.07514601244 -0.09620648775 -4.309561237e-22)
(-0.09645177391 -0.1855556032 4.637855914e-22)
(-0.1183462816 -0.2853567631 -6.488720692e-22)
(-0.133271553 -0.3838386387 9.119934214e-23)
(-0.1265351076 -0.4504358557 2.937486569e-23)
(-0.08899154387 -0.4198536221 5.660458842e-22)
(-0.01526917947 -0.2111719646 6.020823472e-22)
(-0.005180899893 0.08598045727 0)
(-0.02525551141 0.1766291098 1.465579656e-22)
(-0.03483408989 0.2205961399 -4.91713586e-23)
(-0.03640015499 0.2354859157 7.642915586e-22)
(-0.03018485248 0.2343406557 -7.005363733e-22)
(-0.01916582106 0.2241603711 4.746471858e-23)
(-0.005615180083 0.2083525718 -1.018608089e-22)
(0.008569575905 0.1881241017 -3.389882829e-22)
(0.02179882874 0.1633911258 2.062819587e-22)
(0.03262778191 0.1333242773 0)
(0.03958455383 0.09664087 0)
(0.04117010263 0.05174057518 -2.902664292e-22)
(0.0357848104 -0.003255386093 0)
(0.02198182149 -0.07058359682 -5.512180324e-22)
(-0.001264868464 -0.1525735401 -1.492376103e-23)
(-0.0331047177 -0.2505949751 2.559731978e-23)
(-0.0690923733 -0.3599341422 2.203127984e-22)
(-0.09227827996 -0.4575424434 4.788181737e-24)
(-0.08718090326 -0.4698129311 -5.789428267e-22)
(-0.0210312719 -0.2698972229 0)
(-0.01111631575 0.1085974975 0)
(-0.04248902216 0.1947151631 -8.848465952e-22)
(-0.04795529809 0.2258195417 -5.411031978e-22)
(-0.0391953744 0.2282135427 4.543809166e-22)
(-0.01877832364 0.2182327996 -1.709985366e-24)
(0.007664288331 0.2028220228 -4.561041132e-23)
(0.03667990495 0.1847619672 5.696671286e-22)
(0.06582995477 0.1647118157 -2.76688586e-23)
(0.09327127712 0.1423128165 -2.069778466e-22)
(0.1173891295 0.1166274967 3.142209011e-23)
(0.1365461391 0.08641144503 -3.42591271e-23)
(0.1489668994 0.05017669854 -3.690589768e-23)
(0.1525275536 0.00615917607 3.205629679e-22)
(0.1449366817 -0.04796126144 6.119598632e-22)
(0.1235159605 -0.1153052832 -5.101164004e-22)
(0.08633531893 -0.2004195587 -1.61605138e-22)
(0.03199087939 -0.3067806542 1.531314903e-22)
(-0.02362124125 -0.4239837095 7.29366218e-23)
(-0.06492413447 -0.4871612732 1.91329303e-21)
(-0.02509971757 -0.32915447 2.954993064e-21)
(-0.0200468047 0.1460727419 -4.39020332e-23)
(-0.06416406398 0.2112955847 4.417376048e-23)
(-0.0507023108 0.217730044 1.00018718e-21)
(-0.01934098349 0.2014679916 -8.27056221e-24)
(0.02414463446 0.1809076097 0)
(0.07154120113 0.1606933268 4.363713807e-23)
(0.1190703175 0.1416495428 -2.273847629e-22)
(0.1644767077 0.123318178 -9.02794024e-23)
(0.2062250893 0.1048117281 3.680728237e-23)
(0.2429642762 0.08507140224 -1.7016527e-23)
(0.2732207334 0.06296148038 3.429966012e-23)
(0.295253589 0.03726294331 -6.592672818e-23)
(0.3066970869 0.006535073876 -9.303896948e-23)
(0.3049738151 -0.03087769492 1.51704167e-22)
(0.2863936117 -0.07786290504 0)
(0.2470567978 -0.1399300336 1.505603539e-22)
(0.1810922149 -0.2266299737 2.560014815e-22)
(0.09604449592 -0.3443894927 0)
(-0.006697619231 -0.4552210197 -3.675637163e-21)
(-0.01922408257 -0.3777537568 -2.892622484e-21)
(-0.02591951306 0.2276828814 -9.51420133e-22)
(-0.03998324543 0.2238216532 -1.388975135e-22)
(0.03656136881 0.1810585356 -2.33557839e-22)
(0.1090503014 0.1451059069 -1.193740529e-22)
(0.1817191128 0.1172445461 -4.295818161e-23)
(0.2490090631 0.09627907269 9.783158539e-23)
(0.3100336568 0.08002510103 -1.40858913e-22)
(0.3646209174 0.06656815123 1.297172891e-22)
(0.4126252321 0.05449178807 -8.620106274e-23)
(0.4536250126 0.04270894971 1.132187936e-25)
(0.4867878561 0.03032298571 1.527739743e-23)
(0.510745122 0.0165290208 7.997194817e-23)
(0.5236597337 0.0005365167266 -1.811121434e-22)
(0.5231797922 -0.01863373017 -1.617143792e-22)
(0.5052323352 -0.04286478766 -4.262937645e-23)
(0.4658715032 -0.07633231063 0)
(0.3952696461 -0.128608938 -1.846481905e-22)
(0.291607102 -0.2208468096 8.148767962e-22)
(0.1197455088 -0.3525016901 1.631602322e-21)
(0.02670547216 -0.3775497976 2.172656279e-21)
(0.2142894471 0.134744721 9.86498594e-22)
(0.2776311193 0.09870503606 0)
(0.43165923 0.05810414864 -2.594317509e-22)
(0.530474935 0.03846264955 -1.741663453e-22)
(0.6016965744 0.02623419092 0)
(0.6571198935 0.0183192344 -6.009077294e-23)
(0.7015213562 0.01313600813 6.37798671e-23)
(0.7376042445 0.009542126109 -1.800152765e-23)
(0.7669368353 0.006804463529 2.885968477e-23)
(0.7902106621 0.004464743985 2.315029306e-23)
(0.8074554951 0.002221320077 0)
(0.8182621307 -0.000150074662 -2.873028995e-23)
(0.821649968 -0.002723847915 0)
(0.8162394176 -0.005712668367 2.738142888e-23)
(0.7991333139 -0.009611382664 1.421683748e-23)
(0.7679986343 -0.01500255103 -5.799411936e-23)
(0.7106555756 -0.02502519965 -2.535663572e-22)
(0.623518398 -0.04204285419 -6.918105305e-22)
(0.4230091019 -0.09182968092 0)
(0.2705674689 -0.1524021842 -2.119484135e-21)
)


// ************************************************************************* //
