/*--------------------------------*- C++ -*----------------------------------*\
  =========                 |
  \\      /  F ield         | OpenFOAM: The Open Source CFD Toolbox
   \\    /   O peration     | Website:  https://openfoam.org
    \\  /    A nd           | Version:  13
     \\/     M anipulation  |
\*---------------------------------------------------------------------------*/
FoamFile
{
    format      ascii;
    class       vectorField;
    location    "23.64";
    object      U_all;
}
// * * * * * * * * * * * * * * * * * * * * * * * * * * * * * * * * * * * * * //


400
(
(1.0866482e-05 -3.790336801e-05 0)
(-0.000666207671 0.0004130065443 -1.542799655e-23)
(-0.002185265499 0.0009203228364 0)
(-0.00404754029 0.001312671426 0)
(-0.005971393959 0.001534935227 6.831264034e-25)
(-0.007762150031 0.001569713997 4.15321184e-24)
(-0.009283790253 0.001423443981 -7.329352294e-24)
(-0.01043511182 0.001119632893 7.5763041e-24)
(-0.01113596386 0.0006960315616 -2.099005091e-25)
(-0.01132629553 0.0002030689801 -4.000140271e-24)
(-0.01097104503 -0.0003002032851 5.809625538e-24)
(-0.01007173538 -0.0007474584516 -5.934527121e-23)
(-0.008679454998 -0.001075492762 -6.55785875e-23)
(-0.006902608852 -0.001232980106 -7.789757613e-23)
(-0.004910665325 -0.001192596092 4.577061729e-24)
(-0.002927296681 -0.0009619109762 -4.141619527e-24)
(-0.001205449127 -0.0005912375118 -2.001272269e-22)
(-1.92315217e-05 -0.0001699345229 0)
(0.0005180370583 0.0001720229198 1.520770918e-25)
(0.0002227213483 0.0003059376411 -2.698384012e-24)
(-0.0002634041981 0.0008288025348 1.389462143e-25)
(-0.002703137921 0.003383505594 1.55245122e-23)
(-0.00690667998 0.005603958871 1.542130913e-25)
(-0.0119512205 0.007007537791 -8.467880001e-25)
(-0.01713344111 0.007553069142 1.158025764e-24)
(-0.02197330548 0.007293541506 1.302284437e-23)
(-0.02610836709 0.006321358418 1.434198983e-24)
(-0.02926303848 0.004753835943 -7.326819151e-24)
(-0.03122405358 0.00273700682 1.017546954e-23)
(-0.03183941592 0.0004524786795 4.516339835e-24)
(-0.03102524639 -0.001883865857 -6.32541617e-24)
(-0.02879114722 -0.004022594925 2.960827015e-24)
(-0.02526979925 -0.005707834437 3.898193202e-23)
(-0.02073083897 -0.006706886669 -1.956557307e-24)
(-0.01558897692 -0.006853697277 3.758174393e-24)
(-0.01038487549 -0.006097169134 -9.754044869e-23)
(-0.005730288156 -0.004546075769 9.650940755e-23)
(-0.002233508738 -0.002507481047 -3.983465157e-25)
(-0.0001819059484 -0.0005025430928 4.083928593e-25)
(8.341583285e-05 0.0006097901176 0)
(-0.0004187924578 0.002934783926 -2.916589825e-25)
(-0.004647435377 0.008803131167 1.71033247e-23)
(-0.01137082088 0.01323908567 -8.201590685e-24)
(-0.01932533628 0.01579046385 -2.06200574e-25)
(-0.02747135434 0.01652839563 2.025704965e-25)
(-0.03511431228 0.01564297052 8.223810613e-27)
(-0.04170941708 0.013358839 -1.265242858e-24)
(-0.04683133211 0.009919052567 -4.58028398e-25)
(-0.05014537671 0.005602196268 -1.065479962e-23)
(-0.05140789781 0.0007446783788 0)
(-0.05047381931 -0.004241079911 0)
(-0.04733345403 -0.008886135714 2.67368365e-23)
(-0.04215630919 -0.0126805049 2.815642361e-23)
(-0.03531211728 -0.01513474068 -1.648002311e-24)
(-0.0273884205 -0.0158607116 4.852235453e-23)
(-0.01916915813 -0.01467243729 9.431959105e-23)
(-0.01156050674 -0.01169307837 3.989342772e-23)
(-0.005465321502 -0.007450609299 4.186821006e-25)
(-0.00145113759 -0.002936199342 1.0503999e-25)
(-9.072773263e-05 0.0002256788793 0)
(-0.0005024088371 0.006044734562 -4.256298442e-23)
(-0.006402061763 0.01636906043 -1.700540383e-23)
(-0.01553337927 0.02355690238 8.12847398e-24)
(-0.02627636916 0.02743884573 0)
(-0.03728363146 0.02831825336 0)
(-0.04768558121 0.02658527249 0)
(-0.05679108311 0.02262930452 -4.614104277e-26)
(-0.0640477932 0.01683491605 -2.110614119e-24)
(-0.06900454737 0.009621821896 0)
(-0.07130208724 0.001491518544 1.642098282e-24)
(-0.07070269345 -0.006935285461 2.806990625e-25)
(-0.0671251354 -0.0149283625 -2.814850135e-25)
(-0.06069457327 -0.02166506018 0)
(-0.0518039223 -0.02631370113 4.139421212e-23)
(-0.04114727579 -0.02815849685 -4.687765124e-23)
(-0.02971795651 -0.02677191398 -2.768947506e-23)
(-0.01873618239 -0.02221408929 -3.97470993e-23)
(-0.009487599999 -0.0152186624 7.795142678e-25)
(-0.002976785295 -0.007298180096 9.774485317e-23)
(-0.0002318679465 -0.000866359737 0)
(-0.0005315502556 0.01009396202 4.277005836e-23)
(-0.007982736701 0.0259494741 4.772389899e-25)
(-0.01939483292 0.03642505681 -4.66338965e-25)
(-0.03282043944 0.04185098911 0)
(-0.0466421935 0.04289071245 7.768478253e-25)
(-0.05984643824 0.04019710726 -7.66076561e-25)
(-0.07162612691 0.0343446187 3.667301794e-23)
(-0.08132008435 0.02585490443 1.842957234e-23)
(-0.08835825712 0.01527243027 6.223907034e-24)
(-0.09224694377 0.003246791107 -1.644011349e-24)
(-0.09259636265 -0.009406074925 0)
(-0.08916872129 -0.02167210312 4.379993991e-25)
(-0.08195380388 -0.03236413602 1.012323086e-23)
(-0.07126389292 -0.04020890186 -4.355854052e-23)
(-0.0578163565 -0.04401697023 1.937033648e-24)
(-0.04278313453 -0.0429452893 4.231222038e-23)
(-0.02775284513 -0.03683126127 -3.86425478e-25)
(-0.01454979911 -0.02652595065 0)
(-0.004859205909 -0.01408415474 5.435875441e-23)
(-0.0003641203538 -0.0028470496 -2.563325024e-22)
(-0.0005271635276 0.01499770554 9.832708035e-23)
(-0.009376974289 0.03738633232 -4.901185241e-25)
(-0.02287955649 0.05169696091 0)
(-0.0388266705 0.05893602406 0)
(-0.0553813421 0.06025010035 -8.727028119e-23)
(-0.07142223687 0.0566140802 -8.493828182e-23)
(-0.08605895022 0.0487978879 -4.062058683e-23)
(-0.09854250403 0.03743741805 -1.501746017e-23)
(-0.1081857367 0.02315901732 -5.355655066e-24)
(-0.1143355781 0.006710445235 -8.166527716e-24)
(-0.1163959587 -0.0109306665 6.59187682e-24)
(-0.1138856248 -0.02848592948 8.80934447e-24)
(-0.1065414149 -0.04436600868 -1.891916549e-23)
(-0.09446182916 -0.05674837987 4.534131674e-24)
(-0.07826360283 -0.06377802159 0)
(-0.05922531459 -0.06393049701 -1.580263481e-23)
(-0.03933746744 -0.05653466925 -2.191584074e-26)
(-0.02114064875 -0.04235585129 0)
(-0.007318277001 -0.02398131796 -1.518973484e-22)
(-0.0005215729548 -0.005925466489 6.052655225e-22)
(-0.0004990406292 0.02064362792 -9.765741875e-23)
(-0.01052856287 0.05044927775 2.830937347e-22)
(-0.02582728688 0.06911830462 1.526328019e-22)
(-0.04401756774 0.07848514222 3.61763211e-24)
(-0.06310207144 0.08028757565 -7.318470685e-23)
(-0.08189737348 0.07587416288 9.037928941e-23)
(-0.099469835 0.06621205683 -3.58835933e-24)
(-0.1150140954 0.05201384715 -1.72810414e-24)
(-0.1277427465 0.03392240662 2.522540895e-24)
(-0.1368378821 0.01270311367 7.374710844e-24)
(-0.1414617911 -0.01058518254 -6.492123736e-24)
(-0.1408159886 -0.03445598113 -9.76903411e-24)
(-0.1342664984 -0.05692219246 -3.261497956e-23)
(-0.1215379339 -0.07552685369 -3.649438451e-23)
(-0.1029614195 -0.08753609205 5.621400263e-25)
(-0.07975926069 -0.0903860181 0)
(-0.05426384329 -0.08244011754 0)
(-0.02986997114 -0.06397388601 -2.903332057e-24)
(-0.01066225644 -0.03798617369 2.967720704e-24)
(-0.0007350367746 -0.01050055041 1.027767956e-22)
(-0.0004478992807 0.02686987909 0)
(-0.01134839768 0.06480132945 2.00179595e-22)
(-0.02801393323 0.08828790505 8.961388018e-23)
(-0.04799508513 0.1001145193 0)
(-0.06920111166 0.1026990077 1.569303758e-22)
(-0.0904375303 0.09780824943 0)
(-0.1107758807 0.08660516617 -1.427965784e-22)
(-0.129401257 0.06983568034 6.513202585e-24)
(-0.1454684874 0.04808073605 0)
(-0.1580262294 0.0220182481 0)
(-0.1660044004 -0.007331570668 -1.373700349e-24)
(-0.1682584915 -0.03838358103 -9.309621425e-25)
(-0.163698354 -0.06883335966 1.491040458e-22)
(-0.1515135794 -0.09557526719 -4.704188149e-23)
(-0.1315072408 -0.1148219022 -2.558157431e-24)
(-0.1045547081 -0.1225626338 1.531998672e-24)
(-0.07309006722 -0.1155451298 -1.556164864e-24)
(-0.04134824533 -0.09282623604 0)
(-0.01525154979 -0.05740491833 3.202276201e-24)
(-0.0010442391 -0.01714644514 -1.012510581e-21)
(-0.0003744795075 0.03345999246 0)
(-0.01174944524 0.07998199278 -1.127788572e-22)
(-0.02920548306 0.1086296023 -6.189822909e-22)
(-0.05031467823 0.1232131193 -3.754564996e-22)
(-0.07295920927 0.1268998154 0)
(-0.09598454112 0.1219169465 4.118566008e-22)
(-0.1185213657 0.1096281345 1.260551739e-22)
(-0.1398079514 0.09077800946 -5.580304924e-24)
(-0.1590149829 0.06581196308 5.552685414e-24)
(-0.1751386671 0.0352093576 0)
(-0.1869485042 -0.0001937937649 2.91138019e-23)
(-0.1930098998 -0.03889241211 4.69412153e-24)
(-0.1917739439 -0.07843192612 -1.07628853e-22)
(-0.1817809104 -0.1151782152 7.999283729e-23)
(-0.1620512527 -0.1442508576 -2.418639484e-22)
(-0.132701409 -0.1598457569 0)
(-0.09577533764 -0.1563030577 0)
(-0.05601417583 -0.1302916899 0)
(-0.02147771327 -0.08380747893 0)
(-0.001500301918 -0.02665402752 5.570061444e-22)
(-0.0002874359878 0.04015745709 0)
(-0.01169329187 0.09542828022 -3.492336026e-22)
(-0.02924347 0.1293970116 8.931268094e-22)
(-0.05060777002 0.1469187042 3.616461709e-22)
(-0.07369829394 0.1519640917 0)
(-0.09744821326 0.1472664175 -3.861720275e-22)
(-0.1211030554 0.1344118732 -3.173790563e-23)
(-0.1440280889 0.1141344692 3.332492911e-22)
(-0.1655096419 0.08669784669 1.769145692e-22)
(-0.1846200241 0.05229166359 -4.059402847e-23)
(-0.200127713 0.01142010142 1.656700944e-23)
(-0.2104574066 -0.03470904052 -8.263213197e-24)
(-0.2137160942 -0.0837585065 3.37114641e-22)
(-0.2078169304 -0.1318669853 0)
(-0.1908194911 -0.1732659566 2.419807974e-22)
(-0.1616296758 -0.2002493472 5.77140081e-24)
(-0.1211631288 -0.2040027382 -5.857469484e-24)
(-0.07384781124 -0.1772042287 1.547354996e-22)
(-0.02971693398 -0.1188592247 -5.432177302e-24)
(-0.00217945156 -0.04005235816 0)
(-0.0002117978604 0.04671300957 0)
(-0.01125008014 0.1105417375 0)
(-0.0281561724 0.1497247669 -5.021967219e-22)
(-0.04874442545 0.1701401017 -1.880722586e-23)
(-0.07100014224 0.1766145163 2.038058535e-23)
(-0.09399346049 0.1724429391 -2.013994811e-23)
(-0.1171421352 0.1594795645 -2.31650042e-23)
(-0.1400165334 0.1384755491 -3.029264095e-22)
(-0.1621314584 0.1095138345 6.698254048e-23)
(-0.1827945261 0.07245230205 4.512331643e-23)
(-0.2009822353 0.027352191 -4.576847759e-23)
(-0.2152257063 -0.02508189436 0)
(-0.2235547934 -0.08297659774 -7.836555669e-23)
(-0.2234615673 -0.1427173288 0)
(-0.212066012 -0.1981725772 -3.738836018e-22)
(-0.1867413185 -0.2400672525 5.243639051e-22)
(-0.1464417392 -0.2560673735 0)
(-0.09394402405 -0.2331122652 -1.492934102e-22)
(-0.04021913848 -0.1639553697 1.936455323e-22)
(-0.003201000838 -0.05860849555 -3.410439168e-22)
(-0.0002016459312 0.05297261141 0)
(-0.010673085 0.1248093785 9.181829911e-22)
(-0.0262853093 0.16873189 -2.440385791e-23)
(-0.04501218251 0.1916339688 9.192280008e-22)
(-0.06494725763 0.1992810154 -2.511766431e-23)
(-0.08536772409 0.1956008704 2.838461297e-23)
(-0.1059321892 0.1827813646 -2.812550851e-23)
(-0.1264942814 0.1616536562 -1.660692636e-23)
(-0.1469018238 0.1321742556 -5.259528993e-22)
(-0.1668482183 0.09389708157 -8.905439267e-24)
(-0.1857328807 0.0464086762 9.658950249e-24)
(-0.2024807756 -0.01023301203 3.312715983e-22)
(-0.2154178556 -0.07499179814 -5.819996929e-22)
(-0.2220228642 -0.1450235285 0)
(-0.218804368 -0.2146674076 8.885939701e-22)
(-0.2016260615 -0.2739922634 -4.939650977e-22)
(-0.166863489 -0.3075715777 -1.571827178e-23)
(-0.114021211 -0.2953722984 0)
(-0.05288418212 -0.2195736387 -1.889107436e-22)
(-0.004749093515 -0.08377019741 3.359515839e-22)
(-0.000364323267 0.05902030962 1.550844867e-23)
(-0.01049658335 0.1379809683 -8.763205619e-22)
(-0.02441563067 0.1856705725 -1.156948104e-21)
(-0.04026980511 0.2101276201 -8.627994017e-22)
(-0.05631057244 0.2182244458 0)
(-0.07215246999 0.2146100855 3.513406984e-23)
(-0.0877966915 0.201872481 -7.294038597e-23)
(-0.1034612878 0.1809964434 5.86722188e-23)
(-0.1194038803 0.1518982459 3.021000196e-22)
(-0.135799041 0.1139160133 -1.128073917e-23)
(-0.1526143648 0.06621725838 0)
(-0.169458276 0.00818180049 -3.603530493e-22)
(-0.1852819061 -0.06015410513 7.514958414e-22)
(-0.1980500695 -0.1372680852 8.830962963e-22)
(-0.2043588474 -0.2189188914 -5.295929627e-22)
(-0.1991006957 -0.2959633759 5.162086757e-22)
(-0.1760620923 -0.3513988785 1.077879382e-23)
(-0.1300894594 -0.3584068528 -1.095188747e-23)
(-0.06688782133 -0.2843209909 -8.225157254e-23)
(-0.007083248951 -0.116993571 0)
(-0.0009097135978 0.06539811514 -1.911313962e-23)
(-0.01167707814 0.1502755632 -1.326858146e-21)
(-0.02389132952 0.2000573762 1.094133076e-21)
(-0.03601725016 0.2244120685 6.7343712e-22)
(-0.04657813177 0.2316495058 6.014119826e-22)
(-0.05577645763 0.2272314356 6.643371081e-22)
(-0.06411938163 0.2141716524 -4.458250951e-23)
(-0.07228323569 0.1936460696 -3.461037294e-22)
(-0.0809778845 0.165601931 2.151981753e-22)
(-0.09088042911 0.129272058 0)
(-0.1025634046 0.08353393522 0)
(-0.1163707897 0.02720448544 2.655221787e-22)
(-0.1321671706 -0.04061492053 8.194751743e-23)
(-0.1489327638 -0.1200072986 -2.821267022e-22)
(-0.1641349065 -0.2089242888 -5.410875308e-23)
(-0.1727928152 -0.3006931644 1.302016817e-22)
(-0.1670345072 -0.3793263833 -3.399998534e-22)
(-0.1365309139 -0.4136384426 -1.598314611e-23)
(-0.08018285876 -0.3538266193 8.213916486e-23)
(-0.0105076022 -0.1594101526 -6.032936322e-22)
(-0.002260634442 0.07348725071 0)
(-0.01580492777 0.162647541 2.145711899e-21)
(-0.0266534854 0.2117835836 0)
(-0.03422819418 0.2333867656 -1.351706262e-21)
(-0.03760036203 0.2377688661 6.184475571e-23)
(-0.03800455435 0.2312486824 -6.192545718e-22)
(-0.0366913647 0.2171850501 -4.755910724e-22)
(-0.03489978504 0.1968908358 8.300578032e-22)
(-0.03379824089 0.1703338015 -1.885538407e-22)
(-0.03450877256 0.1367236235 0)
(-0.03812564485 0.09479977719 0)
(-0.04565953016 0.04304690581 2.410830542e-23)
(-0.05791714803 -0.02013328788 -6.006836333e-22)
(-0.07515437248 -0.09620193963 -4.3093036e-22)
(-0.09645915425 -0.1855512013 4.637652462e-22)
(-0.1183523579 -0.285352448 -6.488203917e-22)
(-0.1332760445 -0.3838341256 9.118427362e-23)
(-0.1265377561 -0.4504310843 2.942037493e-23)
(-0.08899245889 -0.419848922 5.660747199e-22)
(-0.01526923119 -0.2111693579 6.0215676e-22)
(-0.00518101645 0.08597966267 0)
(-0.02525691167 0.1766261181 1.465613032e-22)
(-0.03483732453 0.2205912324 -4.916841915e-23)
(-0.03640534251 0.2354799363 7.642408201e-22)
(-0.03019184383 0.2343346077 -7.004873382e-22)
(-0.01917431753 0.2241551274 4.746142519e-23)
(-0.005624680889 0.2083487551 -1.018572747e-22)
(0.008559420522 0.1881220501 -3.389628294e-22)
(0.02178834721 0.1633908817 2.062689789e-22)
(0.03261742559 0.1333256598 0)
(0.03957458926 0.09664351566 0)
(0.04116074541 0.05174401192 -2.902513506e-22)
(0.03577613305 -0.00325166486 0)
(0.02197393051 -0.07057994621 -5.511995644e-22)
(-0.001271838786 -0.1525702385 -1.491807754e-23)
(-0.03311058467 -0.2505920446 2.559557664e-23)
(-0.06909705984 -0.3599313162 2.202796186e-22)
(-0.09228134825 -0.4575396873 4.789840868e-24)
(-0.08718215151 -0.4698098438 -5.789739808e-22)
(-0.02103140221 -0.2698952079 0)
(-0.01111637732 0.1085974256 0)
(-0.04249016702 0.1947137513 -8.848005617e-22)
(-0.04795813166 0.2258166148 -5.410812675e-22)
(-0.039200099 0.2282095833 4.543608823e-22)
(-0.01878486023 0.2182285603 -1.710106864e-24)
(0.007656220841 0.202818194 -4.560789104e-23)
(0.03667076573 0.1847591046 5.69630437e-22)
(0.06582019142 0.1647101547 -2.766715004e-23)
(0.09326132598 0.1423125263 -2.069646655e-22)
(0.1173794258 0.1166284674 3.142037603e-23)
(0.1365369886 0.08641342141 -3.42574849e-23)
(0.1489585031 0.05017932662 -3.690446409e-23)
(0.1525200729 0.00616207016 3.205517674e-22)
(0.1449301668 -0.04795848678 6.119396017e-22)
(0.1235103413 -0.1153029106 -5.100999276e-22)
(0.08633068732 -0.2004176968 -1.615975004e-22)
(0.03198683095 -0.306779215 1.531363216e-22)
(-0.02362413497 -0.4239822619 7.293773615e-23)
(-0.06492531182 -0.4871596269 1.913303946e-21)
(-0.02509987951 -0.3291531822 2.955005435e-21)
(-0.02004676194 0.1460731251 -4.390074966e-23)
(-0.06416459012 0.211295344 4.417246932e-23)
(-0.05070400117 0.2177287634 1.000152495e-21)
(-0.01934414901 0.2014658391 -8.26685815e-24)
(0.02413989644 0.1809050483 0)
(0.07153501548 0.1606908494 4.363476827e-23)
(0.119063033 0.1416475648 -2.273713935e-22)
(0.1644687325 0.1233169401 -9.027386136e-23)
(0.2062168581 0.1048113676 3.680503198e-23)
(0.2429562204 0.08507188836 -1.701561871e-23)
(0.2732132062 0.0629626658 3.429801598e-23)
(0.2952468785 0.03726459575 -6.592398883e-23)
(0.3066912464 0.006536924774 -9.303566857e-23)
(0.304968891 -0.03087591236 1.516993679e-22)
(0.2863896061 -0.07786142624 0)
(0.2470536069 -0.1399290122 1.505520767e-22)
(0.181089632 -0.2266295092 2.560010494e-22)
(0.0960425665 -0.3443889227 0)
(-0.006698605949 -0.4552204117 -3.675653274e-21)
(-0.01922424404 -0.3777531939 -2.892634342e-21)
(-0.02591939346 0.2276832837 -9.514119885e-22)
(-0.03998305545 0.2238219307 -1.388944636e-22)
(0.03656115969 0.1810582896 -2.33549351e-22)
(0.1090492424 0.1451051391 -1.193691237e-22)
(0.1817169356 0.11724344 -4.295665572e-23)
(0.2490056985 0.09627790117 9.782609431e-23)
(0.3100292581 0.08002410054 -1.408502135e-22)
(0.364615772 0.06656748168 1.29709325e-22)
(0.4126197003 0.05449154136 -8.619582763e-23)
(0.4536194801 0.04270912981 1.132175972e-25)
(0.4867826663 0.03032352464 1.527669056e-23)
(0.51074054 0.01652980153 7.99685839e-23)
(0.5236559541 0.000537346877 -1.811056809e-22)
(0.523176912 -0.01863292293 -1.617095623e-22)
(0.5052302193 -0.04286413636 -4.262700123e-23)
(0.4658700146 -0.07633190201 0)
(0.3952685681 -0.1286088101 -1.846503847e-22)
(0.2916062902 -0.2208467732 8.148787509e-22)
(0.1197450169 -0.3525016564 1.631605902e-21)
(0.02670534775 -0.3775497241 2.172657913e-21)
(0.2142895711 0.1347448418 9.864895748e-22)
(0.2776315054 0.0987051908 0)
(0.4316596604 0.0581042209 -2.594251591e-22)
(0.530475114 0.03846262456 -1.741606814e-22)
(0.6016962497 0.02623409277 0)
(0.6571189472 0.01831911012 -6.008738117e-23)
(0.7015198234 0.01313590164 6.37756963e-23)
(0.7376022722 0.009542067955 -1.80002498e-23)
(0.7669346345 0.006804471324 2.885771172e-23)
(0.7902084669 0.004464817591 2.31488643e-23)
(0.8074535182 0.00222144582 0)
(0.8182605267 -0.0001499168206 -2.872898464e-23)
(0.8216488267 -0.002723682318 0)
(0.8162387558 -0.005712543571 2.737997594e-23)
(0.7991330327 -0.009611309261 1.421597204e-23)
(0.7679986065 -0.0150025314 -5.799478803e-23)
(0.710655645 -0.02502523228 -2.535675871e-22)
(0.6235184425 -0.04204289257 -6.918120562e-22)
(0.4230090971 -0.09182972067 0)
(0.270567457 -0.1524022022 -2.119485729e-21)
)


// ************************************************************************* //
