/*--------------------------------*- C++ -*----------------------------------*\
  =========                 |
  \\      /  F ield         | OpenFOAM: The Open Source CFD Toolbox
   \\    /   O peration     | Website:  https://openfoam.org
    \\  /    A nd           | Version:  13
     \\/     M anipulation  |
\*---------------------------------------------------------------------------*/
FoamFile
{
    format      ascii;
    class       scalarField;
    location    "44.77";
    object      p_all;
}
// * * * * * * * * * * * * * * * * * * * * * * * * * * * * * * * * * * * * * //


400
(
2.06715896e-08
-0.0005474843272
-0.000889538022
-0.001017029166
-0.0009381658722
-0.0006853089509
-0.0002960310446
0.000193683095
0.0007473158697
0.001324382547
0.00187923478
0.002359004701
0.002708295225
0.002874017928
0.002814650758
0.002512207277
0.001987158266
0.001296637812
0.0006377227775
4.183006242e-05
0.0005881745717
6.876164967e-06
-0.0003568688002
-0.0004992077856
-0.0004685549462
-0.0002914799774
2.624984322e-06
0.0003844619867
0.0008226230303
0.001279850938
0.001716307348
0.002080837278
0.002323062853
0.002395611977
0.002264614113
0.001921302915
0.001392434794
0.0007430684375
0.0001454323007
-0.0005172498997
0.0009524296917
0.0003080251004
-9.323083298e-05
-0.0002395745779
-0.0002334674902
-0.0001049735684
0.0001218689727
0.0004257630684
0.0007829668488
0.00116147099
0.001529482393
0.001832874973
0.002021721877
0.002047297492
0.001874461811
0.001493398466
0.0009280944118
0.0002351161682
-0.0004633428555
-0.001300313812
0.0009761334805
0.0002579654188
-0.0001922788847
-0.0003445753622
-0.0003538461672
-0.0002568778014
-7.429877133e-05
0.0001813017319
0.0004963779182
0.0008506876659
0.001203033615
0.001510500112
0.001712290143
0.001747873743
0.001568381655
0.001150427565
0.0005058379852
-0.0003186441452
-0.001233968603
-0.002384767364
0.0004804749602
-0.0002850213223
-0.0007639262115
-0.0009156237714
-0.0009366468704
-0.0008682261431
-0.0007253304715
-0.000508406372
-0.0002171650307
0.0001391466185
0.0005300916747
0.0009073943243
0.00119982849
0.001326508366
0.001211020412
0.0008001702924
7.991399644e-05
-0.0009176829175
-0.002127663058
-0.003656163086
-0.000686364183
-0.00146715762
-0.001956214358
-0.002107270893
-0.002150047493
-0.00212669528
-0.002042316233
-0.001879700644
-0.001617592922
-0.001245561805
-0.0007791438597
-0.0002628795734
0.0002206053973
0.0005614763678
0.0006378193422
0.0003415033282
-0.0003930631867
-0.001564101623
-0.003134885487
-0.005142124026
-0.002661834619
-0.003423545432
-0.003915417186
-0.004080802478
-0.004178173654
-0.004247226407
-0.00427824422
-0.004229191273
-0.004047592298
-0.003689643417
-0.003140790576
-0.002426788217
-0.001633537763
-0.0009034644481
-0.0004248565403
-0.0003987277027
-0.0009882807884
-0.002260623642
-0.004232784882
-0.006828365393
-0.005555041899
-0.006269961839
-0.006768247899
-0.006982197837
-0.007195591149
-0.007443491718
-0.007697199746
-0.007882268162
-0.007902238488
-0.007660684608
-0.007087420142
-0.006159562881
-0.004943810344
-0.003604926891
-0.002413994006
-0.001714577895
-0.001843267393
-0.003015083415
-0.005368520396
-0.008662316818
-0.009435269257
-0.01008160359
-0.01059846983
-0.01091070884
-0.01132611206
-0.01187599822
-0.01251137863
-0.01311975851
-0.01354792393
-0.01362349965
-0.0131826256
-0.01212127042
-0.01042817331
-0.008256701788
-0.005956471257
-0.004062046821
-0.003190311724
-0.003843213621
-0.006426611389
-0.01049180093
-0.01431703735
-0.01487603129
-0.01542302142
-0.01588226421
-0.01659010008
-0.01758023149
-0.01878709496
-0.02005923263
-0.02117772763
-0.02187378864
-0.02185757204
-0.02087245693
-0.01877211459
-0.01562028505
-0.01179525453
-0.008037513753
-0.005360070222
-0.004760328755
-0.007181350613
-0.0119794325
-0.02015454466
-0.02060477535
-0.02117496955
-0.02179697514
-0.02285232894
-0.02439058431
-0.02633945454
-0.02851384565
-0.0306277944
-0.03230373596
-0.0330954978
-0.03254094919
-0.03028272717
-0.02617892478
-0.02052511733
-0.01420414357
-0.008691750069
-0.005726818898
-0.00721946498
-0.01246661218
-0.02685657345
-0.02716233315
-0.0277027746
-0.02842319363
-0.0297893936
-0.03188933077
-0.03465911698
-0.03788988294
-0.04123417296
-0.04420530337
-0.04618838128
-0.04647903204
-0.0444633333
-0.03966028088
-0.03212126543
-0.02269898691
-0.01326679159
-0.006486149907
-0.005808840696
-0.01076543625
-0.03433493464
-0.03441834448
-0.03478968709
-0.03540477291
-0.03689208462
-0.03941023697
-0.0429202815
-0.0471979184
-0.05184031471
-0.05625863194
-0.05967999089
-0.06119115602
-0.0597797812
-0.05465602772
-0.04544130398
-0.03269994398
-0.01845332218
-0.006246128019
-0.001674170511
-0.004873804741
-0.04261007504
-0.04227964842
-0.04219587151
-0.04229619345
-0.04351393967
-0.04611663602
-0.05009985453
-0.05522062835
-0.06101531305
-0.06679642597
-0.07164037182
-0.07441327263
-0.07383283337
-0.06867515312
-0.0580722156
-0.04206208763
-0.02244029603
-0.003257462568
0.00734683243
0.008341228655
-0.05201057845
-0.05076123475
-0.04967806084
-0.04857916064
-0.04892702558
-0.05112045519
-0.05517315566
-0.06079650937
-0.06743582106
-0.0742901902
-0.08028306857
-0.08407652169
-0.08413095386
-0.07883783977
-0.06684310194
-0.04752370992
-0.02212773771
0.005501526327
0.02471512932
0.03352716967
-0.06365617659
-0.06018947526
-0.05709762203
-0.05376467334
-0.05246581833
-0.05368049084
-0.05736534303
-0.06313854835
-0.07026302574
-0.07780149076
-0.08449317984
-0.08878639117
-0.08889870803
-0.08283998085
-0.06885106362
-0.04562108485
-0.01375176198
0.02441667101
0.05553942465
0.07735566517
-0.08018673301
-0.07107529046
-0.06412154635
-0.05716585273
-0.05343201807
-0.05321611065
-0.05625987758
-0.06191491193
-0.06926006413
-0.07711805524
-0.08401331781
-0.08815277189
-0.08748120005
-0.07965691566
-0.06247975981
-0.03405067102
0.005564720479
0.05859389912
0.1058229392
0.148067647
-0.1105081199
-0.0858554283
-0.07160739281
-0.05897242996
-0.05191484135
-0.04988460092
-0.05210442482
-0.05751059262
-0.06486142662
-0.07271031226
-0.07934173
-0.08271502325
-0.08052074427
-0.06988764238
-0.04823270433
-0.01272273657
0.03823604278
0.1071320115
0.1779785744
0.256476413
-0.1684382973
-0.09990959302
-0.07500967871
-0.05479930719
-0.04462045893
-0.04158700484
-0.04371965182
-0.0493835971
-0.05701926541
-0.06497284088
-0.07136370908
-0.07398197857
-0.07013077075
-0.05701424421
-0.03102884164
0.0119292024
0.07559939406
0.1664041624
0.276161941
0.437704204
-0.3984295776
-0.1381007376
-0.07497184203
-0.04708985741
-0.03355093588
-0.03003175372
-0.03280397478
-0.03926680305
-0.04756060551
-0.05594116514
-0.06250218125
-0.06503124622
-0.06099647816
-0.04697026745
-0.01875705467
0.02993532964
0.1069555867
0.233427176
0.419880131
0.7800233125
)


// ************************************************************************* //
