# Selection       : all
# Cells           : 400
# Volume          : 1.0670236902e+00
# Time            	min(U)
0                 	(0.0000000000e+00 0.0000000000e+00 0.0000000000e+00)
0.01              	(-9.9335047546e-03 -2.2092695417e-02 -1.2858069833e-20)
0.02              	(-2.0022993623e-02 -4.6351220928e-02 -9.7121386253e-21)
0.03              	(-2.9049404768e-02 -6.9955379249e-02 -8.9968456110e-21)
0.04              	(-3.6506433520e-02 -9.1423738282e-02 -8.3410627233e-21)
0.05              	(-4.2415145122e-02 -1.1052878411e-01 -7.8252567184e-21)
0.06              	(-4.6989921981e-02 -1.2754044605e-01 -7.3906740210e-21)
0.07              	(-5.0471709120e-02 -1.4281060996e-01 -7.0057037840e-21)
0.08              	(-5.3072096236e-02 -1.5663418274e-01 -6.6575410043e-21)
0.09              	(-5.6625048425e-02 -1.6923197366e-01 -6.3406532519e-21)
0.1               	(-6.1174363454e-02 -1.8076825302e-01 -6.0485897695e-21)
0.11              	(-6.5407056885e-02 -1.9137072986e-01 -5.7848594852e-21)
0.12              	(-6.9332624354e-02 -2.0114394457e-01 -5.5430534848e-21)
0.13              	(-7.2958591638e-02 -2.1017765582e-01 -5.3223010009e-21)
0.14              	(-7.6293805362e-02 -2.1854804280e-01 -5.1157581734e-21)
0.15              	(-7.9346656818e-02 -2.2632172423e-01 -4.9240032121e-21)
0.16              	(-8.2125752157e-02 -2.3355682259e-01 -4.7452466526e-21)
0.17              	(-8.4640726775e-02 -2.4030617434e-01 -4.6174922612e-21)
0.18              	(-8.6900488716e-02 -2.4661462728e-01 -4.5299245269e-21)
0.19              	(-8.8935753995e-02 -2.5252615494e-01 -4.4550424711e-21)
0.2               	(-9.0711239461e-02 -2.5806496319e-01 -4.3677001319e-21)
0.21              	(-9.2246377936e-02 -2.6326613469e-01 -4.2948449196e-21)
0.22              	(-9.3556740205e-02 -2.6815930903e-01 -4.2266586961e-21)
0.23              	(-9.4921795796e-02 -2.7276896986e-01 -4.1614615155e-21)
0.24              	(-9.7765796031e-02 -2.7711521912e-01 -4.0976725256e-21)
0.25              	(-1.0050029770e-01 -2.8121057218e-01 -4.0246789369e-21)
0.26              	(-1.0314732348e-01 -2.8510357129e-01 -3.9958382543e-21)
0.27              	(-1.0571230017e-01 -2.8881194731e-01 -3.9711324909e-21)
0.28              	(-1.0818324984e-01 -2.9232943674e-01 -3.9316878995e-21)
0.29              	(-1.1055114269e-01 -2.9565786745e-01 -3.8871206342e-21)
0.3               	(-1.1281439482e-01 -2.9881053575e-01 -3.8450107748e-21)
0.31              	(-1.1497450055e-01 -3.0180291141e-01 -3.8059827454e-21)
0.32              	(-1.1703338096e-01 -3.0464830489e-01 -3.7696346784e-21)
0.33              	(-1.1899281834e-01 -3.0735751700e-01 -3.7353266729e-21)
0.34              	(-1.2085434040e-01 -3.0993975074e-01 -3.7029796096e-21)
0.35              	(-1.2261942479e-01 -3.1240327053e-01 -3.6723146797e-21)
0.36              	(-1.2428959589e-01 -3.1475578563e-01 -3.6431167123e-21)
0.37              	(-1.2586647003e-01 -3.1700472230e-01 -3.6151529172e-21)
0.38              	(-1.2734794884e-01 -3.1914186106e-01 -3.5911482949e-21)
0.39              	(-1.2873736769e-01 -3.2117945567e-01 -3.5688620627e-21)
0.4               	(-1.3003790851e-01 -3.2312747981e-01 -3.5477424246e-21)
0.41              	(-1.3125160264e-01 -3.2499128852e-01 -3.5276385609e-21)
0.42              	(-1.3238004940e-01 -3.2677467584e-01 -3.5085185665e-21)
0.43              	(-1.3342487787e-01 -3.2848125800e-01 -3.4902467242e-21)
0.44              	(-1.3438777425e-01 -3.3011490785e-01 -3.4732964498e-21)
0.45              	(-1.3527058938e-01 -3.3167926882e-01 -3.4569485867e-21)
0.46              	(-1.3607522127e-01 -3.3317781211e-01 -3.4413898833e-21)
0.47              	(-1.3680361658e-01 -3.3461388880e-01 -3.4266703384e-21)
0.48              	(-1.3745777436e-01 -3.3599069646e-01 -3.4127383779e-21)
0.49              	(-1.3803972958e-01 -3.3731126041e-01 -3.3995563365e-21)
0.5               	(-1.3854901739e-01 -3.3856826764e-01 -3.3889277165e-21)
0.51              	(-1.3899032687e-01 -3.3977562429e-01 -3.3779719683e-21)
0.52              	(-1.3955683367e-01 -3.4093593868e-01 -3.3675666616e-21)
0.53              	(-1.4105587554e-01 -3.4204976167e-01 -3.3579082964e-21)
0.54              	(-1.4251141315e-01 -3.4311931461e-01 -3.3485173154e-21)
0.55              	(-1.4392346599e-01 -3.4414668214e-01 -3.3396288256e-21)
0.56              	(-1.4529209620e-01 -3.4513371994e-01 -3.3310065695e-21)
0.57              	(-1.4661735466e-01 -3.4608234150e-01 -3.3230279796e-21)
0.58              	(-1.4789942481e-01 -3.4699444725e-01 -3.3156249091e-21)
0.59              	(-1.4913844242e-01 -3.4787181351e-01 -3.3085228562e-21)
0.6               	(-1.5033306946e-01 -3.4871577481e-01 -3.2993488736e-21)
0.61              	(-1.5148711508e-01 -3.4952870148e-01 -3.2963280328e-21)
0.62              	(-1.5259971827e-01 -3.5031179868e-01 -3.2905503333e-21)
0.63              	(-1.5367023100e-01 -3.5106631546e-01 -3.2848625824e-21)
0.64              	(-1.5469798231e-01 -3.5179347797e-01 -3.2788034576e-21)
0.65              	(-1.5567449069e-01 -3.5249402923e-01 -3.2679081662e-21)
0.66              	(-1.5662056022e-01 -3.5317068830e-01 -3.2718861637e-21)
0.67              	(-1.5753115335e-01 -3.5382380741e-01 -3.2678905934e-21)
0.68              	(-1.5840294793e-01 -3.5445409614e-01 -3.2634485801e-21)
0.69              	(-1.5923495314e-01 -3.5539179441e-01 -3.2591926037e-21)
0.7               	(-1.6002724572e-01 -3.5733219446e-01 -3.2552499284e-21)
0.71              	(-1.6078022408e-01 -3.5922383130e-01 -3.2515819363e-21)
0.72              	(-1.6149429593e-01 -3.6106823345e-01 -3.2480840857e-21)
0.73              	(-1.6216826408e-01 -3.6286630889e-01 -3.2438161931e-21)
0.74              	(-1.6279334455e-01 -3.6461771388e-01 -3.2340037551e-21)
0.75              	(-1.6339641055e-01 -3.6632940446e-01 -3.2446163733e-21)
0.76              	(-1.6397096550e-01 -3.6800040834e-01 -3.2432707800e-21)
0.77              	(-1.6451319732e-01 -3.6963132047e-01 -3.2411489666e-21)
0.78              	(-1.6502113494e-01 -3.7122264339e-01 -3.2388182069e-21)
0.79              	(-1.6549457638e-01 -3.7277523221e-01 -3.2365738319e-21)
0.8               	(-1.6593401463e-01 -3.7429025319e-01 -3.2348922811e-21)
0.81              	(-1.6634067106e-01 -3.7576874096e-01 -3.2331919193e-21)
0.82              	(-1.6677622684e-01 -3.7721187093e-01 -3.2320394281e-21)
0.83              	(-1.6718665265e-01 -3.7862073589e-01 -3.2311455661e-21)
0.84              	(-1.6756829441e-01 -3.7999636008e-01 -3.2304592014e-21)
0.85              	(-1.6792195130e-01 -3.8133971264e-01 -3.2299581652e-21)
0.86              	(-1.6824841595e-01 -3.8265172114e-01 -3.2296363198e-21)
0.87              	(-1.6854849265e-01 -3.8393327973e-01 -3.2294993836e-21)
0.88              	(-1.6882302323e-01 -3.8518525488e-01 -3.2295682250e-21)
0.89              	(-1.6970505398e-01 -3.8640849072e-01 -3.2298913095e-21)
0.9               	(-1.7065793551e-01 -3.8760381457e-01 -3.2305798701e-21)
0.91              	(-1.7158842284e-01 -3.8877201641e-01 -3.2319050285e-21)
0.92              	(-1.7249808177e-01 -3.8991456986e-01 -3.2360168373e-21)
0.93              	(-1.7338791638e-01 -3.9103247307e-01 -3.2394015964e-21)
0.94              	(-1.7424965775e-01 -3.9212172446e-01 -3.2233717483e-21)
0.95              	(-1.7508681430e-01 -3.9318542637e-01 -3.2226796417e-21)
0.96              	(-1.7590214164e-01 -3.9422570213e-01 -3.2248294247e-21)
0.97              	(-1.7669660024e-01 -3.9524369737e-01 -3.2269739825e-21)
0.98              	(-1.7747031209e-01 -3.9624001356e-01 -3.2286486583e-21)
0.99              	(-1.7822320697e-01 -3.9721504928e-01 -3.2299904583e-21)
1                 	(-1.7895523921e-01 -3.9816918967e-01 -3.2312109106e-21)
1.01              	(-1.7966633327e-01 -3.9910289444e-01 -3.2325564446e-21)
1.02              	(-1.8035708026e-01 -4.0001648507e-01 -3.2333079576e-21)
1.03              	(-1.8102752991e-01 -4.0091048122e-01 -3.2343880395e-21)
1.04              	(-1.8167778893e-01 -4.0178539649e-01 -3.2356062291e-21)
1.05              	(-1.8230803932e-01 -4.0264171696e-01 -3.2368719277e-21)
1.06              	(-1.8291850313e-01 -4.0347991056e-01 -3.2381704748e-21)
1.07              	(-1.8350942070e-01 -4.0430043134e-01 -3.2394995351e-21)
1.08              	(-1.8408104075e-01 -4.0510372156e-01 -3.2408601885e-21)
1.09              	(-1.8463361650e-01 -4.0589021234e-01 -3.2422534195e-21)
1.1               	(-1.8516740424e-01 -4.0666032373e-01 -3.2436793784e-21)
1.11              	(-1.8568266255e-01 -4.0741446460e-01 -3.2451373625e-21)
1.12              	(-1.8617965157e-01 -4.0815303239e-01 -3.2466259251e-21)
1.13              	(-1.8665863143e-01 -4.0887641323e-01 -3.2481423720e-21)
1.14              	(-1.8711986090e-01 -4.0958498086e-01 -3.2496856814e-21)
1.15              	(-1.8756359557e-01 -4.1027909230e-01 -3.2512402722e-21)
1.16              	(-1.8799006331e-01 -4.1095908804e-01 -3.2527999165e-21)
1.17              	(-1.8839941088e-01 -4.1162525719e-01 -3.2542889346e-21)
1.18              	(-1.8879185866e-01 -4.1227791402e-01 -3.2557962569e-21)
1.19              	(-1.8916860620e-01 -4.1291788299e-01 -3.2582171101e-21)
1.2               	(-1.8952960552e-01 -4.1354528443e-01 -3.2600178000e-21)
1.21              	(-1.8987487696e-01 -4.1416026541e-01 -3.2617032171e-21)
1.22              	(-1.9020460429e-01 -4.1476307150e-01 -3.2634077826e-21)
1.23              	(-1.9051904797e-01 -4.1535399235e-01 -3.2651513664e-21)
1.24              	(-1.9081849057e-01 -4.1593332584e-01 -3.2669328443e-21)
1.25              	(-1.9110321581e-01 -4.1650136228e-01 -3.2687452083e-21)
1.26              	(-1.9137350295e-01 -4.1705838051e-01 -3.2705828028e-21)
1.27              	(-1.9162962645e-01 -4.1760464829e-01 -3.2724420925e-21)
1.28              	(-1.9187185639e-01 -4.1814042376e-01 -3.2743214050e-21)
1.29              	(-1.9210045818e-01 -4.1866595696e-01 -3.2762212293e-21)
1.3               	(-1.9231568913e-01 -4.1918149164e-01 -3.2781472129e-21)
1.31              	(-1.9251777439e-01 -4.1968727146e-01 -3.2801354906e-21)
1.32              	(-1.9270689906e-01 -4.2018354237e-01 -3.2822214538e-21)
1.33              	(-1.9288372622e-01 -4.2067043057e-01 -3.2837614798e-21)
1.34              	(-1.9304834714e-01 -4.2114819348e-01 -3.2857150165e-21)
1.35              	(-1.9320092521e-01 -4.2161706222e-01 -3.2877080675e-21)
1.36              	(-1.9334168385e-01 -4.2207724789e-01 -3.2897119828e-21)
1.37              	(-1.9347087204e-01 -4.2252894930e-01 -3.2917188439e-21)
1.38              	(-1.9358874483e-01 -4.2297235786e-01 -3.2937285968e-21)
1.39              	(-1.9369555536e-01 -4.2340765961e-01 -3.2957428034e-21)
1.4               	(-1.9379155246e-01 -4.2383503594e-01 -3.2977629146e-21)
1.41              	(-1.9387698039e-01 -4.2425466376e-01 -3.2997899132e-21)
1.42              	(-1.9421374531e-01 -4.2466671543e-01 -3.3018243377e-21)
1.43              	(-1.9473712404e-01 -4.2507135881e-01 -3.3038662574e-21)
1.44              	(-1.9524930556e-01 -4.2546875712e-01 -3.3059147877e-21)
1.45              	(-1.9575039771e-01 -4.2585906846e-01 -3.3079653713e-21)
1.46              	(-1.9624051105e-01 -4.2624244160e-01 -3.3099814579e-21)
1.47              	(-1.9671975415e-01 -4.2661903074e-01 -3.3120535655e-21)
1.48              	(-1.9718822911e-01 -4.2698900897e-01 -3.3143340383e-21)
1.49              	(-1.9764605241e-01 -4.2735250669e-01 -3.3164589614e-21)
1.5               	(-1.9809333985e-01 -4.2770965515e-01 -3.3185902187e-21)
1.51              	(-1.9853020567e-01 -4.2806058699e-01 -3.3207487492e-21)
1.52              	(-1.9895676369e-01 -4.2840543329e-01 -3.3229462510e-21)
1.53              	(-1.9937312767e-01 -4.2874432215e-01 -3.3251957053e-21)
1.54              	(-1.9977941105e-01 -4.2907737838e-01 -3.3275171004e-21)
1.55              	(-2.0017572605e-01 -4.2940472390e-01 -3.3299459036e-21)
1.56              	(-2.0056218124e-01 -4.2972647985e-01 -3.3325526085e-21)
1.57              	(-2.0093887336e-01 -4.3004277446e-01 -3.3355034280e-21)
1.58              	(-2.0130584063e-01 -4.3058544888e-01 -3.3393326243e-21)
1.59              	(-2.0166204052e-01 -4.3121234265e-01 -3.3406637870e-21)
1.6               	(-2.0201014932e-01 -4.3181977142e-01 -3.3411673379e-21)
1.61              	(-2.0234937180e-01 -4.3239850793e-01 -3.3381364955e-21)
1.62              	(-2.0267952668e-01 -4.3296394248e-01 -3.3405463062e-21)
1.63              	(-2.0300047130e-01 -4.3352198595e-01 -3.3428967469e-21)
1.64              	(-2.0331200109e-01 -4.3407324615e-01 -3.3445339129e-21)
1.65              	(-2.0361333949e-01 -4.3461721991e-01 -3.3452137229e-21)
1.66              	(-2.0390489477e-01 -4.3515387938e-01 -3.3464656795e-21)
1.67              	(-2.0419110491e-01 -4.3568417338e-01 -3.3516062711e-21)
1.68              	(-2.0447004571e-01 -4.3620756123e-01 -3.3528345454e-21)
1.69              	(-2.0474076753e-01 -4.3672415281e-01 -3.3551747765e-21)
1.7               	(-2.0500286803e-01 -4.3723388142e-01 -3.3566609696e-21)
1.71              	(-2.0525616924e-01 -4.3773676014e-01 -3.3581070544e-21)
1.72              	(-2.0550148066e-01 -4.3823299873e-01 -3.3598386773e-21)
1.73              	(-2.0573951837e-01 -4.3872278607e-01 -3.3616945700e-21)
1.74              	(-2.0597101824e-01 -4.3920630921e-01 -3.3637093706e-21)
1.75              	(-2.0619515658e-01 -4.3968348233e-01 -3.3653820828e-21)
1.76              	(-2.0641164269e-01 -4.4015432278e-01 -3.3670403375e-21)
1.77              	(-2.0662054398e-01 -4.4061891843e-01 -3.3687391411e-21)
1.78              	(-2.0682203384e-01 -4.4107737533e-01 -3.3704670142e-21)
1.79              	(-2.0701628317e-01 -4.4152979566e-01 -3.3721981045e-21)
1.8               	(-2.0720343390e-01 -4.4197627378e-01 -3.3739209050e-21)
1.81              	(-2.0738360117e-01 -4.4241689662e-01 -3.3756205295e-21)
1.82              	(-2.0755687576e-01 -4.4285173508e-01 -3.3772297071e-21)
1.83              	(-2.0772331277e-01 -4.4328088288e-01 -3.3788931009e-21)
1.84              	(-2.0788286773e-01 -4.4370442311e-01 -3.3805140527e-21)
1.85              	(-2.0803491902e-01 -4.4412229100e-01 -3.3813511454e-21)
1.86              	(-2.0817989984e-01 -4.4453468681e-01 -3.3828304282e-21)
1.87              	(-2.0832113357e-01 -4.4494237009e-01 -3.3874241264e-21)
1.88              	(-2.0845719340e-01 -4.4534493990e-01 -3.3891358348e-21)
1.89              	(-2.0858716064e-01 -4.4574230566e-01 -3.3907357678e-21)
1.9               	(-2.0871132949e-01 -4.4613441466e-01 -3.3918632667e-21)
1.91              	(-2.0882963265e-01 -4.4652138233e-01 -3.3933254237e-21)
1.92              	(-2.0894206240e-01 -4.4690333678e-01 -3.3949196217e-21)
1.93              	(-2.0904871664e-01 -4.4728038490e-01 -3.3965501187e-21)
1.94              	(-2.0914973260e-01 -4.4765261725e-01 -3.3981899256e-21)
1.95              	(-2.0924524843e-01 -4.4802011536e-01 -3.3998299546e-21)
1.96              	(-2.0933539119e-01 -4.4838295598e-01 -3.4014669857e-21)
1.97              	(-2.0942027656e-01 -4.4874121310e-01 -3.4030994472e-21)
1.98              	(-2.0950001164e-01 -4.4909495879e-01 -3.4047262929e-21)
1.99              	(-2.0957469781e-01 -4.4944426357e-01 -3.4063467495e-21)
2                 	(-2.0964443257e-01 -4.4978919659e-01 -3.4079602427e-21)
2.01              	(-2.0970931208e-01 -4.5012982405e-01 -3.4095662267e-21)
2.02              	(-2.0976942660e-01 -4.5046621586e-01 -3.4111650600e-21)
2.03              	(-2.0982486815e-01 -4.5079843585e-01 -3.4127553229e-21)
2.04              	(-2.0987572641e-01 -4.5112654810e-01 -3.4143373632e-21)
2.05              	(-2.0992208960e-01 -4.5145061550e-01 -3.4159105708e-21)
2.06              	(-2.0996404468e-01 -4.5177069962e-01 -3.4174736448e-21)
2.07              	(-2.1000167772e-01 -4.5208685975e-01 -3.4190204470e-21)
2.08              	(-2.1003508649e-01 -4.5239910968e-01 -3.4202979136e-21)
2.09              	(-2.1006432685e-01 -4.5270760150e-01 -3.4221883373e-21)
2.1               	(-2.1008948947e-01 -4.5301236624e-01 -3.4237334984e-21)
2.11              	(-2.1011065738e-01 -4.5331344705e-01 -3.4252485192e-21)
2.12              	(-2.1012791360e-01 -4.5361089323e-01 -3.4267515669e-21)
2.13              	(-2.1014133693e-01 -4.5390475822e-01 -3.4282479837e-21)
2.14              	(-2.1015100446e-01 -4.5419509610e-01 -3.4297387079e-21)
2.15              	(-2.1015699204e-01 -4.5448196044e-01 -3.4312234780e-21)
2.16              	(-2.1015937445e-01 -4.5476540387e-01 -3.4327017341e-21)
2.17              	(-2.1015822550e-01 -4.5504547796e-01 -3.4341729459e-21)
2.18              	(-2.1015361793e-01 -4.5532223328e-01 -3.4356367015e-21)
2.19              	(-2.1014562348e-01 -4.5559571939e-01 -3.4370927058e-21)
2.2               	(-2.1013431284e-01 -4.5586598495e-01 -3.4385407541e-21)
2.21              	(-2.1011975563e-01 -4.5613307773e-01 -3.4399807136e-21)
2.22              	(-2.1010202048e-01 -4.5639704460e-01 -3.4414125017e-21)
2.23              	(-2.1008117493e-01 -4.5665793164e-01 -3.4428360729e-21)
2.24              	(-2.1023849584e-01 -4.5691578409e-01 -3.4442514082e-21)
2.25              	(-2.1046415434e-01 -4.5717064642e-01 -3.4456585092e-21)
2.26              	(-2.1068560308e-01 -4.5742256233e-01 -3.4470573938e-21)
2.27              	(-2.1090289699e-01 -4.5767157474e-01 -3.4484480944e-21)
2.28              	(-2.1111609056e-01 -4.5791772587e-01 -3.4498306575e-21)
2.29              	(-2.1132523791e-01 -4.5816105718e-01 -3.4512051451e-21)
2.3               	(-2.1153039275e-01 -4.5840160947e-01 -3.4525716381e-21)
2.31              	(-2.1173160838e-01 -4.5863942280e-01 -3.4539302418e-21)
2.32              	(-2.1192893775e-01 -4.5887453658e-01 -3.4552810957e-21)
2.33              	(-2.1212243342e-01 -4.5910698955e-01 -3.4566243899e-21)
2.34              	(-2.1231214762e-01 -4.5933681984e-01 -3.4579603915e-21)
2.35              	(-2.1249813233e-01 -4.5956406492e-01 -3.4592894931e-21)
2.36              	(-2.1268043935e-01 -4.5978876173e-01 -3.4606123015e-21)
2.37              	(-2.1285912049e-01 -4.6001094667e-01 -3.4619298150e-21)
2.38              	(-2.1303422796e-01 -4.6023065575e-01 -3.4632438129e-21)
2.39              	(-2.1320581518e-01 -4.6044792485e-01 -3.4645578176e-21)
2.4               	(-2.1337393888e-01 -4.6066279042e-01 -3.4658799209e-21)
2.41              	(-2.1353866602e-01 -4.6087529205e-01 -3.4672337461e-21)
2.42              	(-2.1370011079e-01 -4.6108548723e-01 -3.4687301110e-21)
2.43              	(-2.1385867895e-01 -4.6129354679e-01 -3.4710618760e-21)
2.44              	(-2.1401332956e-01 -4.6149897548e-01 -3.4703295254e-21)
2.45              	(-2.1416446673e-01 -4.6170207808e-01 -3.4715128399e-21)
2.46              	(-2.1431237486e-01 -4.6190298700e-01 -3.4728714747e-21)
2.47              	(-2.1445718050e-01 -4.6210176162e-01 -3.4742290064e-21)
2.48              	(-2.1459893952e-01 -4.6229843229e-01 -3.4755459599e-21)
2.49              	(-2.1473768420e-01 -4.6249301844e-01 -3.4768213653e-21)
2.5               	(-2.1487344329e-01 -4.6268553813e-01 -3.4780639066e-21)
2.51              	(-2.1500624825e-01 -4.6287601110e-01 -3.4792813421e-21)
2.52              	(-2.1513613384e-01 -4.6306445816e-01 -3.4804730919e-21)
2.53              	(-2.1526313678e-01 -4.6325089579e-01 -3.4816086321e-21)
2.54              	(-2.1538729828e-01 -4.6343537013e-01 -3.4828756022e-21)
2.55              	(-2.1550865696e-01 -4.6361790047e-01 -3.4840522274e-21)
2.56              	(-2.1562725309e-01 -4.6379850846e-01 -3.4852120484e-21)
2.57              	(-2.1574312662e-01 -4.6397721778e-01 -3.4863622041e-21)
2.58              	(-2.1585631724e-01 -4.6415405302e-01 -3.4875047700e-21)
2.59              	(-2.1596686437e-01 -4.6432903889e-01 -3.4886403771e-21)
2.6               	(-2.1607480704e-01 -4.6450219988e-01 -3.4897691508e-21)
2.61              	(-2.1618018393e-01 -4.6467356013e-01 -3.4908910589e-21)
2.62              	(-2.1628303327e-01 -4.6484314340e-01 -3.4920060391e-21)
2.63              	(-2.1638339292e-01 -4.6501097305e-01 -3.4931140402e-21)
2.64              	(-2.1648130029e-01 -4.6517707210e-01 -3.4942150324e-21)
2.65              	(-2.1657679234e-01 -4.6534146323e-01 -3.4953090051e-21)
2.66              	(-2.1666990563e-01 -4.6550416877e-01 -3.4963959638e-21)
2.67              	(-2.1676067625e-01 -4.6566521070e-01 -3.4974759250e-21)
2.68              	(-2.1684913987e-01 -4.6582461072e-01 -3.4985489131e-21)
2.69              	(-2.1693533173e-01 -4.6598239017e-01 -3.4996149580e-21)
2.7               	(-2.1701928659e-01 -4.6613857010e-01 -3.5006740931e-21)
2.71              	(-2.1710103883e-01 -4.6629317126e-01 -3.5017263540e-21)
2.72              	(-2.1718062234e-01 -4.6644621407e-01 -3.5027717779e-21)
2.73              	(-2.1725807061e-01 -4.6659771866e-01 -3.5038104025e-21)
2.74              	(-2.1733341670e-01 -4.6674770487e-01 -3.5048422659e-21)
2.75              	(-2.1740669321e-01 -4.6689619222e-01 -3.5058674069e-21)
2.76              	(-2.1747793234e-01 -4.6704319996e-01 -3.5068858641e-21)
2.77              	(-2.1754716586e-01 -4.6718874704e-01 -3.5078976761e-21)
2.78              	(-2.1761442510e-01 -4.6733285214e-01 -3.5089028811e-21)
2.79              	(-2.1767974100e-01 -4.6747553364e-01 -3.5099015169e-21)
2.8               	(-2.1774314406e-01 -4.6761680966e-01 -3.5108936210e-21)
2.81              	(-2.1780466436e-01 -4.6775669804e-01 -3.5118792302e-21)
2.82              	(-2.1786433158e-01 -4.6789521635e-01 -3.5128583807e-21)
2.83              	(-2.1792217499e-01 -4.6803238189e-01 -3.5138311083e-21)
2.84              	(-2.1797822345e-01 -4.6816821170e-01 -3.5147974478e-21)
2.85              	(-2.1803250539e-01 -4.6830272257e-01 -3.5157574332e-21)
2.86              	(-2.1808504886e-01 -4.6843593103e-01 -3.5167110976e-21)
2.87              	(-2.1813588149e-01 -4.6856785336e-01 -3.5176584725e-21)
2.88              	(-2.1818503051e-01 -4.6869850557e-01 -3.5185995884e-21)
2.89              	(-2.1823252274e-01 -4.6882790346e-01 -3.5195344739e-21)
2.9               	(-2.1827838458e-01 -4.6895606256e-01 -3.5204631557e-21)
2.91              	(-2.1832264204e-01 -4.6908299817e-01 -3.5213856577e-21)
2.92              	(-2.1836532069e-01 -4.6920872534e-01 -3.5223020011e-21)
2.93              	(-2.1840644568e-01 -4.6933325890e-01 -3.5232122028e-21)
2.94              	(-2.1844604172e-01 -4.6945661342e-01 -3.5241162751e-21)
2.95              	(-2.1848413308e-01 -4.6957880325e-01 -3.5250142236e-21)
2.96              	(-2.1852074354e-01 -4.6969984249e-01 -3.5259060459e-21)
2.97              	(-2.1855589637e-01 -4.6981974501e-01 -3.5267917283e-21)
2.98              	(-2.1858961291e-01 -4.6993852588e-01 -3.5276708273e-21)
2.99              	(-2.1862191773e-01 -4.7005619232e-01 -3.5285424117e-21)
3                 	(-2.1865283133e-01 -4.7017276537e-01 -3.5294108557e-21)
3.01              	(-2.1868237419e-01 -4.7028825426e-01 -3.5302710441e-21)
3.02              	(-2.1871056587e-01 -4.7040267199e-01 -3.5311252768e-21)
3.03              	(-2.1873742444e-01 -4.7051603001e-01 -3.5319722364e-21)
3.04              	(-2.1876296613e-01 -4.7062834004e-01 -3.5328121070e-21)
3.05              	(-2.1878720420e-01 -4.7073961247e-01 -3.5336439047e-21)
3.06              	(-2.1881014674e-01 -4.7084985704e-01 -3.5344659358e-21)
3.07              	(-2.1883179217e-01 -4.7095908075e-01 -3.5352751262e-21)
3.08              	(-2.1885211686e-01 -4.7106728612e-01 -3.5360638247e-21)
3.09              	(-2.1887103117e-01 -4.7117446085e-01 -3.5368087993e-21)
3.1               	(-2.1888897337e-01 -4.7128071264e-01 -3.5377335873e-21)
3.11              	(-2.1890625028e-01 -4.7138610976e-01 -3.5386956287e-21)
3.12              	(-2.1892260132e-01 -4.7149059861e-01 -3.5395083503e-21)
3.13              	(-2.1893841213e-01 -4.7159427292e-01 -3.5405087932e-21)
3.14              	(-2.1895316671e-01 -4.7169702110e-01 -3.5412402450e-21)
3.15              	(-2.1896669542e-01 -4.7179881784e-01 -3.5419753805e-21)
3.16              	(-2.1897906050e-01 -4.7189968695e-01 -3.5427480152e-21)
3.17              	(-2.1899032566e-01 -4.7199964962e-01 -3.5435212398e-21)
3.18              	(-2.1900052859e-01 -4.7209872107e-01 -3.5442860673e-21)
3.19              	(-2.1900969493e-01 -4.7219691255e-01 -3.5450413713e-21)
3.2               	(-2.1901784644e-01 -4.7229423590e-01 -3.5458003497e-21)
3.21              	(-2.1902500520e-01 -4.7239070223e-01 -3.5465554926e-21)
3.22              	(-2.1903119362e-01 -4.7248632235e-01 -3.5473066258e-21)
3.23              	(-2.1903643305e-01 -4.7258110661e-01 -3.5480529069e-21)
3.24              	(-2.1904074371e-01 -4.7267506501e-01 -3.5487948200e-21)
3.25              	(-2.1904414718e-01 -4.7276820829e-01 -3.5495212611e-21)
3.26              	(-2.1904666452e-01 -4.7286054270e-01 -3.5502444585e-21)
3.27              	(-2.1904830825e-01 -4.7295207945e-01 -3.5509767496e-21)
3.28              	(-2.1904909369e-01 -4.7304282852e-01 -3.5517047161e-21)
3.29              	(-2.1904903764e-01 -4.7313279880e-01 -3.5524257972e-21)
3.3               	(-2.1904815673e-01 -4.7322199903e-01 -3.5531410565e-21)
3.31              	(-2.1904646702e-01 -4.7331043783e-01 -3.5538514170e-21)
3.32              	(-2.1904398501e-01 -4.7339812146e-01 -3.5545558983e-21)
3.33              	(-2.1904072429e-01 -4.7348506272e-01 -3.5552583757e-21)
3.34              	(-2.1903670005e-01 -4.7357126785e-01 -3.5559540042e-21)
3.35              	(-2.1903192643e-01 -4.7365674461e-01 -3.5566429663e-21)
3.36              	(-2.1902641741e-01 -4.7374149999e-01 -3.5573207007e-21)
3.37              	(-2.1902018735e-01 -4.7382552234e-01 -3.5578701387e-21)
3.38              	(-2.1901324904e-01 -4.7390886292e-01 -3.5587352338e-21)
3.39              	(-2.1900561377e-01 -4.7399151654e-01 -3.5594176471e-21)
3.4               	(-2.1899729688e-01 -4.7407348386e-01 -3.5600819390e-21)
3.41              	(-2.1898831147e-01 -4.7415476961e-01 -3.5607396748e-21)
3.42              	(-2.1897867017e-01 -4.7423538054e-01 -3.5613943731e-21)
3.43              	(-2.1896838527e-01 -4.7431532423e-01 -3.5620466274e-21)
3.44              	(-2.1895746893e-01 -4.7439460833e-01 -3.5626962358e-21)
3.45              	(-2.1894593312e-01 -4.7447324037e-01 -3.5633428382e-21)
3.46              	(-2.1893378965e-01 -4.7455122771e-01 -3.5639861139e-21)
3.47              	(-2.1892105019e-01 -4.7462857750e-01 -3.5646258261e-21)
3.48              	(-2.1890772622e-01 -4.7470529677e-01 -3.5652618158e-21)
3.49              	(-2.1889382908e-01 -4.7478139242e-01 -3.5658939830e-21)
3.5               	(-2.1887936993e-01 -4.7485687120e-01 -3.5665222697e-21)
3.51              	(-2.1886435974e-01 -4.7493173980e-01 -3.5671466460e-21)
3.52              	(-2.1884880934e-01 -4.7500600478e-01 -3.5677671010e-21)
3.53              	(-2.1883272939e-01 -4.7507967261e-01 -3.5683836362e-21)
3.54              	(-2.1891355706e-01 -4.7515274969e-01 -3.5689962610e-21)
3.55              	(-2.1899493034e-01 -4.7522524232e-01 -3.5696049905e-21)
3.56              	(-2.1907521159e-01 -4.7529715670e-01 -3.5702098429e-21)
3.57              	(-2.1915441381e-01 -4.7536849899e-01 -3.5708108389e-21)
3.58              	(-2.1923254979e-01 -4.7543927522e-01 -3.5714080005e-21)
3.59              	(-2.1930963225e-01 -4.7550949139e-01 -3.5720013508e-21)
3.6               	(-2.1938567371e-01 -4.7557915338e-01 -3.5725909134e-21)
3.61              	(-2.1946068741e-01 -4.7564826873e-01 -3.5731780213e-21)
3.62              	(-2.1953468402e-01 -4.7571683961e-01 -3.5737593222e-21)
3.63              	(-2.1960767636e-01 -4.7578487333e-01 -3.5743377531e-21)
3.64              	(-2.1967967651e-01 -4.7585237571e-01 -3.5749123992e-21)
3.65              	(-2.1975069633e-01 -4.7591935231e-01 -3.5754833744e-21)
3.66              	(-2.1982074756e-01 -4.7598580859e-01 -3.5760507156e-21)
3.67              	(-2.1988984180e-01 -4.7605174994e-01 -3.5766144413e-21)
3.68              	(-2.1995799052e-01 -4.7611718168e-01 -3.5771745747e-21)
3.69              	(-2.2002520506e-01 -4.7618210905e-01 -3.5777311386e-21)
3.7               	(-2.2009149663e-01 -4.7624653724e-01 -3.5782841564e-21)
3.71              	(-2.2015687633e-01 -4.7631047135e-01 -3.5788336511e-21)
3.72              	(-2.2022135511e-01 -4.7637391644e-01 -3.5793796459e-21)
3.73              	(-2.2028494381e-01 -4.7643687749e-01 -3.5799221638e-21)
3.74              	(-2.2034765314e-01 -4.7649935942e-01 -3.5804612277e-21)
3.75              	(-2.2040949370e-01 -4.7656136709e-01 -3.5809968601e-21)
3.76              	(-2.2047047596e-01 -4.7662290531e-01 -3.5815290835e-21)
3.77              	(-2.2053061028e-01 -4.7668397880e-01 -3.5820579203e-21)
3.78              	(-2.2058990688e-01 -4.7674459226e-01 -3.5825833925e-21)
3.79              	(-2.2064837589e-01 -4.7680475030e-01 -3.5831055218e-21)
3.8               	(-2.2070602731e-01 -4.7686445748e-01 -3.5836243301e-21)
3.81              	(-2.2076287102e-01 -4.7692371832e-01 -3.5841398385e-21)
3.82              	(-2.2081891680e-01 -4.7698253726e-01 -3.5846520683e-21)
3.83              	(-2.2087417431e-01 -4.7704091871e-01 -3.5851610404e-21)
3.84              	(-2.2092865309e-01 -4.7709886700e-01 -3.5856667752e-21)
3.85              	(-2.2098236259e-01 -4.7715638642e-01 -3.5861692930e-21)
3.86              	(-2.2103531213e-01 -4.7721348121e-01 -3.5866686137e-21)
3.87              	(-2.2108751092e-01 -4.7727015555e-01 -3.5871647570e-21)
3.88              	(-2.2113896809e-01 -4.7732641357e-01 -3.5876577419e-21)
3.89              	(-2.2118969263e-01 -4.7738225936e-01 -3.5881475873e-21)
3.9               	(-2.2123969345e-01 -4.7743769695e-01 -3.5886343116e-21)
3.91              	(-2.2128897933e-01 -4.7749273033e-01 -3.5891179326e-21)
3.92              	(-2.2133755897e-01 -4.7754736342e-01 -3.5895984678e-21)
3.93              	(-2.2138544096e-01 -4.7760160011e-01 -3.5900759339e-21)
3.94              	(-2.2143263377e-01 -4.7765544425e-01 -3.5905503470e-21)
3.95              	(-2.2147914580e-01 -4.7770889963e-01 -3.5910217222e-21)
3.96              	(-2.2152498533e-01 -4.7776196999e-01 -3.5914900744e-21)
3.97              	(-2.2157016055e-01 -4.7781465905e-01 -3.5919554174e-21)