/*--------------------------------*- C++ -*----------------------------------*\
  =========                 |
  \\      /  F ield         | OpenFOAM: The Open Source CFD Toolbox
   \\    /   O peration     | Website:  https://openfoam.org
    \\  /    A nd           | Version:  13
     \\/     M anipulation  |
\*---------------------------------------------------------------------------*/
FoamFile
{
    format      ascii;
    class       vectorField;
    location    "42.6";
    object      U_all;
}
// * * * * * * * * * * * * * * * * * * * * * * * * * * * * * * * * * * * * * //


400
(
(1.100604123e-05 -3.783171257e-05 0)
(-0.0006660954034 0.0004130431455 -1.551288503e-23)
(-0.002185374716 0.0009203939854 0)
(-0.004047832144 0.00131278021 0)
(-0.005971867522 0.00153506418 6.845673246e-25)
(-0.007762783921 0.001569847025 4.15101209e-24)
(-0.009284547519 0.001423565037 -7.373567352e-24)
(-0.01043594374 0.001119726673 7.53048418e-24)
(-0.01113681487 0.0006960859609 -2.095405588e-25)
(-0.01132710981 0.000203079064 -3.994671264e-24)
(-0.01097177023 -0.0003002343823 5.803635229e-24)
(-0.01007232663 -0.0007475183051 -5.92956133e-23)
(-0.008679880644 -0.001075564151 -6.552689431e-23)
(-0.00690285454 -0.001233044635 -7.784298192e-23)
(-0.004910738787 -0.001192638048 4.573587163e-24)
(-0.002927230291 -0.0009619202028 -4.137931033e-24)
(-0.001205295142 -0.000591212221 -1.998747945e-22)
(-1.906356308e-05 -0.0001698840346 0)
(0.0005181579605 0.0001720843997 1.509401566e-25)
(0.0002227532204 0.0003059775625 -2.550064999e-24)
(-0.0002633624595 0.0008289699524 1.382983857e-25)
(-0.00270330509 0.00338384256 1.561085506e-23)
(-0.006907278034 0.005604502772 1.555323383e-25)
(-0.01195232093 0.007008208138 -8.495443586e-25)
(-0.01713504358 0.007553774586 1.16214643e-24)
(-0.021975352 0.007294197424 1.306920231e-23)
(-0.02611075934 0.00632189355 1.388138316e-24)
(-0.02926564865 0.004754195327 -7.282226074e-24)
(-0.0312267337 0.002737155711 1.015254512e-23)
(-0.03184201313 0.0004524090841 4.510018551e-24)
(-0.03102761539 -0.001884143651 -6.318910058e-24)
(-0.02879316507 -0.004023030378 2.961630962e-24)
(-0.02527138206 -0.005708355967 3.895524999e-23)
(-0.02073194852 -0.006707410625 -1.954766825e-24)
(-0.0155896271 -0.006854141144 3.754477271e-24)
(-0.01038513386 -0.006097466229 -9.741005098e-23)
(-0.005730269481 -0.004546189933 9.63763644e-23)
(-0.002233362211 -0.00250742334 -3.960991024e-25)
(-0.0001817708473 -0.000502376382 4.06088794e-25)
(8.343778861e-05 0.0006099220051 0)
(-0.0004188228478 0.002935079706 -2.910415155e-25)
(-0.00464787396 0.008804014567 1.702075941e-23)
(-0.01137196088 0.01324042496 -8.283670415e-24)
(-0.01932729339 0.01579204395 -2.075376872e-25)
(-0.02747411939 0.01653000306 2.038841092e-25)
(-0.03511778864 0.01564441702 6.824850505e-27)
(-0.04171344645 0.01335997363 -1.220629503e-24)
(-0.04683571519 0.00991976804 -4.551454177e-25)
(-0.05014988886 0.005602431986 -1.063073833e-23)
(-0.05141232053 0.0007444217189 0)
(-0.05047793474 -0.004241778015 0)
(-0.04733706445 -0.008887184939 2.671021522e-23)
(-0.04215928007 -0.01268176882 2.813027945e-23)
(-0.03531437505 -0.01513605277 -1.646171717e-24)
(-0.02738996339 -0.01586189781 4.845903221e-23)
(-0.01917005874 -0.01467334471 9.41930842e-23)
(-0.01156090497 -0.01169360747 3.975779199e-23)
(-0.005465407338 -0.007450747206 4.141864516e-25)
(-0.001451094944 -0.002936047818 1.073823015e-25)
(-9.072465217e-05 0.0002258725923 0)
(-0.0005024633485 0.006045351262 -4.248893353e-23)
(-0.006402739916 0.01637075521 -1.692300309e-23)
(-0.01553502364 0.02355933465 8.210519142e-24)
(-0.02627912081 0.02744162655 0)
(-0.03728746928 0.02832102442 0)
(-0.04769037704 0.02658772883 0)
(-0.05679663169 0.02263120536 -4.467940477e-26)
(-0.06405384026 0.01683609232 -2.136592671e-24)
(-0.06901081415 0.009622181552 0)
(-0.07130827812 0.001491048171 1.635433192e-24)
(-0.07070853552 -0.006936504138 2.802751324e-25)
(-0.06713039574 -0.01493018726 -2.810598962e-25)
(-0.06069905885 -0.02166728007 0)
(-0.05180750871 -0.02631605676 4.13328237e-23)
(-0.04114991965 -0.02816070896 -4.681615129e-23)
(-0.02971970331 -0.02677372328 -2.761999077e-23)
(-0.01873716517 -0.02221530656 -3.960925078e-23)
(-0.009488024688 -0.0152192238 7.795991845e-25)
(-0.002976876326 -0.00729819749 9.790315206e-23)
(-0.0002318776907 -0.000866171421 0)
(-0.0005316142164 0.01009501772 4.269554614e-23)
(-0.007983594501 0.02595219779 4.78522382e-25)
(-0.01939687512 0.03642882876 -4.675930872e-25)
(-0.03282382399 0.0418552065 0)
(-0.04664688991 0.04289485233 7.782865792e-25)
(-0.05985229796 0.04020074195 -7.674953528e-25)
(-0.07163291628 0.03434741917 3.6722613e-23)
(-0.08132751487 0.0258566426 1.848167563e-23)
(-0.08836601169 0.0152729835 6.238739955e-24)
(-0.09225469463 0.003246145851 -1.637338494e-24)
(-0.0926037964 -0.009407833621 0)
(-0.08917555453 -0.02167478041 4.370585161e-25)
(-0.08195979401 -0.03236744956 1.008997124e-23)
(-0.07126885781 -0.04021249965 -4.349314409e-23)
(-0.05782019202 -0.04402046149 1.932916834e-24)
(-0.04278583202 -0.04294829199 4.217369272e-23)
(-0.0277545031 -0.03683346822 -3.841952988e-25)
(-0.014550621 -0.02652720963 0)
(-0.004859460128 -0.01408454601 5.436518977e-23)
(-0.0003641471388 -0.00284695518 -2.56507111e-22)
(-0.0005272217855 0.01499927713 9.841503325e-23)
(-0.009377926927 0.03739022546 -4.907753654e-25)
(-0.0228818296 0.05170223286 0)
(-0.03883043598 0.05894183277 0)
(-0.0553865676 0.06025574644 -8.732075369e-23)
(-0.07142876691 0.05661901046 -8.499052128e-23)
(-0.08606654299 0.04880168806 -4.067513303e-23)
(-0.09855086248 0.03743980597 -1.504349399e-23)
(-0.1081945333 0.02315984029 -5.368792401e-24)
(-0.1143444734 0.006709679222 -8.174935011e-24)
(-0.1164046198 -0.01093292216 6.601082794e-24)
(-0.1138937387 -0.02848945103 8.826683916e-24)
(-0.1065486982 -0.04437046243 -1.892321598e-23)
(-0.09446804278 -0.05675333639 4.607796318e-24)
(-0.07826857251 -0.06378298436 0)
(-0.0592289573 -0.06393495145 -1.572924017e-23)
(-0.03933982015 -0.05653816038 -2.427670182e-26)
(-0.02114188767 -0.04235808982 0)
(-0.007318701923 -0.02398229399 -1.52063973e-22)
(-0.0005216160578 -0.005925545419 6.056256162e-22)
(-0.0004990818178 0.02064574422 -9.774455453e-23)
(-0.01052950991 0.05045438164 2.831980557e-22)
(-0.02582957608 0.06912511898 1.526859287e-22)
(-0.0440213848 0.07849258169 3.619270597e-24)
(-0.06310739281 0.08029476608 -7.319361899e-23)
(-0.08190405141 0.07588042996 9.043506026e-23)
(-0.09947763757 0.06621690692 -3.590204576e-24)
(-0.115022739 0.0520169503 -1.729165278e-24)
(-0.1277519192 0.03392358455 2.524153167e-24)
(-0.1368472602 0.01270233143 7.382572734e-24)
(-0.1414710508 -0.01058782409 -6.500831357e-24)
(-0.1408248162 -0.03446024493 -9.788105873e-24)
(-0.1342745958 -0.05692771833 -3.261727861e-23)
(-0.1215450247 -0.07553316276 -3.661514826e-23)
(-0.102967268 -0.08754260505 5.646002467e-25)
(-0.07976370166 -0.09039209503 0)
(-0.05426682666 -0.08244513548 0)
(-0.02987161018 -0.06397736713 -2.906055094e-24)
(-0.01066285165 -0.03798794656 2.970504112e-24)
(-0.0007350937104 -0.01050089464 1.027873869e-22)
(-0.0004479159225 0.02687251107 0)
(-0.01134923173 0.06480757424 2.001979846e-22)
(-0.02801599704 0.08829617238 8.962048953e-23)
(-0.04799857437 0.1001234958 0)
(-0.06920602116 0.1027076573 1.569881637e-22)
(-0.09044373337 0.0978157882 0)
(-0.1107831699 0.08661103172 -1.428388368e-22)
(-0.1294093785 0.06983950416 6.515555475e-24)
(-0.1454771655 0.04808232185 0)
(-0.1580351824 0.02201755502 0)
(-0.1660133453 -0.007334441085 -1.374410241e-24)
(-0.1682671547 -0.03838839932 -9.316794067e-25)
(-0.163706469 -0.06883976097 1.491981434e-22)
(-0.1515208765 -0.09558275975 -4.704622882e-23)
(-0.131513457 -0.1148298672 -2.560979824e-24)
(-0.1045596096 -0.1225703414 1.534731266e-24)
(-0.0730935007 -0.1155517962 -1.55894055e-24)
(-0.04135021609 -0.09283115518 0)
(-0.01525230337 -0.05740767599 3.2038101e-24)
(-0.00104430929 -0.01714714441 -1.01291358e-21)
(-0.0003744665818 0.03346304596 0)
(-0.01175006077 0.07998918734 -1.128289766e-22)
(-0.02920707899 0.1086390939 -6.191149034e-22)
(-0.05031745007 0.1232233991 -3.75530664e-22)
(-0.07296317474 0.1269097043 0)
(-0.09598960315 0.1219255657 4.119458139e-22)
(-0.1185273507 0.1096348662 1.260925014e-22)
(-0.1398146453 0.09078246022 -5.581833643e-24)
(-0.1590221583 0.06581393237 5.554206566e-24)
(-0.1751461028 0.03520881083 0)
(-0.1869559996 -0.0001967481676 2.912129029e-23)
(-0.193017265 -0.03889754521 4.695838305e-24)
(-0.1917809913 -0.07843888773 -1.076809325e-22)
(-0.1817874439 -0.1151865404 8.0042213e-23)
(-0.1620570444 -0.1442599487 -2.419747168e-22)
(-0.1327062014 -0.1598548645 0)
(-0.09577888285 -0.1563112895 0)
(-0.05601633153 -0.1302981087 0)
(-0.02147859189 -0.08381135105 0)
(-0.001500384782 -0.02665516275 5.572114657e-22)
(-0.0002873904875 0.04016077792 0)
(-0.01169359707 0.09543611611 -3.493016035e-22)
(-0.02924438309 0.129407363 8.932799054e-22)
(-0.05060947226 0.1469299166 3.617178969e-22)
(-0.07370082562 0.1519748674 0)
(-0.09745151114 0.1472757969 -3.862555871e-22)
(-0.121106985 0.1344191964 -3.174431332e-23)
(-0.1440324813 0.1141393337 3.333106044e-22)
(-0.1655143268 0.08670006781 1.769474898e-22)
(-0.1846248548 0.0522912361 -4.060151449e-23)
(-0.2001325825 0.0114171623 1.656821866e-23)
(-0.2104622445 -0.03471424194 -8.265245712e-24)
(-0.2137208525 -0.08376563729 3.37185775e-22)
(-0.2078215494 -0.1318756365 0)
(-0.1908238534 -0.1732756154 2.420916195e-22)
(-0.1616335738 -0.2002593408 5.774778248e-24)
(-0.1211662693 -0.2040121718 -5.860897273e-24)
(-0.0738498983 -0.1772119961 1.548448051e-22)
(-0.0297178685 -0.1188642328 -5.435460357e-24)
(-0.002179545222 -0.04005398734 0)
(-0.0002117202333 0.04671639987 0)
(-0.01125001166 0.1105498133 0)
(-0.02815624526 0.1497355007 -5.022756808e-22)
(-0.04874479264 0.1701517603 -1.880997837e-23)
(-0.07100086504 0.1766257145 2.038378914e-23)
(-0.0939945137 0.1724526513 -2.014311409e-23)
(-0.1171434299 0.1594870995 -2.316884399e-23)
(-0.1400179517 0.1384805096 -3.029824454e-22)
(-0.1621328912 0.1095160734 6.698617925e-23)
(-0.1827959056 0.07245187172 4.513177195e-23)
(-0.2009835566 0.0273492903 -4.577719418e-23)
(-0.2152270263 -0.02508697627 0)
(-0.2235562206 -0.08298351293 -7.839678775e-23)
(-0.2234632188 -0.1427257331 0)
(-0.2120679426 -0.1981820885 -3.73956251e-22)
(-0.1867434545 -0.2400773702 5.244954827e-22)
(-0.1464438303 -0.2560773419 0)
(-0.09394567732 -0.233120951 -1.493994142e-22)
(-0.04022000999 -0.1639613663 1.937550528e-22)
(-0.003201100284 -0.0586106315 -3.411530028e-22)
(-0.0002015409581 0.05297585076 0)
(-0.01067261939 0.1248172389 9.182871872e-22)
(-0.02628446769 0.1687424582 -2.440685867e-23)
(-0.04501107803 0.1916455138 9.193339077e-22)
(-0.06494597376 0.1992921051 -2.512086542e-23)
(-0.0853662838 0.1956104315 2.838845181e-23)
(-0.105930564 0.1827886844 -2.812931232e-23)
(-0.1264924191 0.1616583514 -1.660918612e-23)
(-0.146899686 0.1321762312 -5.260230797e-22)
(-0.1668458173 0.09389646817 -8.906630945e-24)
(-0.1857303037 0.0464057651 9.660196905e-24)
(-0.2024781692 -0.01023784551 3.313078279e-22)
(-0.2154154614 -0.0749982019 -5.820740516e-22)
(-0.2220209714 -0.1450311831 0)
(-0.2188032102 -0.2146760616 8.887324729e-22)
(-0.2016257523 -0.2740016425 -4.940887427e-22)
(-0.1668639193 -0.3075811962 -1.572223391e-23)
(-0.1140220094 -0.2953811917 0)
(-0.05288482021 -0.2195802581 -1.890184225e-22)
(-0.004749188156 -0.08377277961 3.360587801e-22)
(-0.0003641986618 0.05902317797 1.551010723e-23)
(-0.01049574034 0.1379881502 -8.764199444e-22)
(-0.02441389647 0.18568041 -1.157059256e-21)
(-0.04026724435 0.2101384747 -8.628987959e-22)
(-0.05630729486 0.2182348907 0)
(-0.07214856369 0.2146190266 3.513806446e-23)
(-0.08779221465 0.2018791953 -7.29486919e-23)
(-0.1034562783 0.181000561 5.867886948e-23)
(-0.1193983874 0.1518997246 3.021367952e-22)
(-0.1357931555 0.1139150579 -1.128196157e-23)
(-0.1526082332 0.06621425092 0)
(-0.1694521387 0.008177204952 -3.603930369e-22)
(-0.1852760608 -0.06015987563 7.515669653e-22)
(-0.1980448526 -0.1372747002 8.831705668e-22)
(-0.2043546271 -0.2189261883 -5.296628139e-22)
(-0.1990977618 -0.2959712911 5.162690589e-22)
(-0.1760605334 -0.351407259 1.07823315e-23)
(-0.1300890634 -0.3584150786 -1.095548193e-23)
(-0.06688803316 -0.2843276512 -8.215328686e-23)
(-0.007083319941 -0.1169964417 0)
(-0.0009095780078 0.06540041619 -1.911487335e-23)
(-0.01167591852 0.1502816415 -1.326965883e-21)
(-0.02388882201 0.2000659561 1.094237636e-21)
(-0.0360134043 0.2244216964 6.734930322e-22)
(-0.04657308612 0.2316588241 6.014632151e-22)
(-0.0557703831 0.2272393693 6.643957943e-22)
(-0.06411245564 0.2141774872 -4.458678863e-23)
(-0.07227561498 0.1936494375 -3.461338007e-22)
(-0.08096972852 0.1656028311 2.152162973e-22)
(-0.09087192274 0.1292707351 0)
(-0.1025547453 0.08353082459 0)
(-0.116362216 0.02720010736 2.655397381e-22)
(-0.1321589564 -0.04062005986 8.194326518e-23)
(-0.1489252323 -0.1200128304 -2.821624031e-22)
(-0.1641284286 -0.2089300686 -5.411272459e-23)
(-0.1727877624 -0.3006992503 1.301951918e-22)
(-0.1670311309 -0.3793329099 -3.400505028e-22)
(-0.1365292442 -0.4136451967 -1.593848679e-23)
(-0.08018250151 -0.3538326201 8.204101348e-23)
(-0.01050762294 -0.1594130567 -6.032162007e-22)
(-0.002260498931 0.07348883573 0)
(-0.01580355808 0.1626521778 2.145875067e-21)
(-0.02665042747 0.2117904744 0)
(-0.03422339677 0.2333947275 -1.351807969e-21)
(-0.03759398444 0.2377766825 6.184054092e-23)
(-0.03799685151 0.2312553518 -6.193095506e-22)
(-0.0366826582 0.2171899002 -4.756284839e-22)
(-0.03489036284 0.1968934481 8.301256313e-22)
(-0.03378837878 0.1703342371 -1.885698518e-22)
(-0.03449876428 0.1367221064 0)
(-0.03811572732 0.09479673534 0)
(-0.04564992481 0.0430428653 2.410614767e-23)
(-0.0579080438 -0.02013781249 -6.007199332e-22)
(-0.07514598638 -0.09620650203 -4.309567505e-22)
(-0.09645175082 -0.185555617 4.637862813e-22)
(-0.1183462625 -0.2853567767 -6.488735758e-22)
(-0.1332715389 -0.383838653 9.119947241e-23)
(-0.1265350992 -0.4504358709 2.937334115e-23)
(-0.08899154099 -0.419853637 5.660445528e-22)
(-0.01526917932 -0.2111719728 6.020794745e-22)
(-0.005180899999 0.0859804596 0)
(-0.02525550836 0.1766291191 1.465579476e-22)
(-0.03483408145 0.2205961559 -4.917144806e-23)
(-0.03640014001 0.2354859354 7.642930468e-22)
(-0.03018483094 0.2343406753 -7.00537771e-22)
(-0.01916579427 0.2241603877 4.746480818e-23)
(-0.005615150123 0.2083525835 -1.018609615e-22)
(0.008569607896 0.1881241077 -3.389888909e-22)
(0.02179886187 0.163391126 2.062822779e-22)
(0.0326278148 0.1333242723 0)
(0.03958458555 0.0966408612 0)
(0.0411701324 0.05174056406 -2.902667891e-22)
(0.03578483792 -0.00325539794 0)
(0.02198184647 -0.07058360831 -5.51218718e-22)
(-0.001264846366 -0.1525735504 -1.492377491e-23)
(-0.03310469904 -0.2505949843 2.55974042e-23)
(-0.06909235835 -0.3599341512 2.203141803e-22)
(-0.09227827014 -0.4575424522 4.788095436e-24)
(-0.08718089926 -0.4698129409 -5.789414073e-22)
(-0.02103127148 -0.2698972292 0)
(-0.01111631604 0.1085974969 0)
(-0.04248901958 0.1947151666 -8.848480184e-22)
(-0.04795529028 0.2258195505 -5.411039925e-22)
(-0.03919536071 0.2282135556 4.543816718e-22)
(-0.01877830405 0.2182328138 -1.709984788e-24)
(0.007664313023 0.2028220356 -4.561049473e-23)
(0.0366799332 0.1847619769 5.696681851e-22)
(0.06582998522 0.1647118216 -2.766890357e-23)
(0.09327130849 0.142312818 -2.069781672e-22)
(0.1173891604 0.1166274943 3.142213543e-23)
(0.1365461684 0.08641143941 -3.425917224e-23)
(0.1489669263 0.05017669086 -3.690594163e-23)
(0.1525275775 0.006159167492 3.205633617e-22)
(0.1449367025 -0.04796126971 6.119606338e-22)
(0.1235159785 -0.1153052903 -5.101171622e-22)
(0.08633533378 -0.2004195644 -1.616058053e-22)
(0.0319908924 -0.3067806587 1.531308268e-22)
(-0.02362123191 -0.4239837141 7.293653666e-23)
(-0.06492413066 -0.4871612785 1.913291788e-21)
(-0.02509971705 -0.329154474 2.954991659e-21)
(-0.02004680551 0.1460727395 -4.390207849e-23)
(-0.06416406343 0.2112955842 4.4173806e-23)
(-0.05070230605 0.2177300465 1.000188571e-21)
(-0.01934097366 0.2014679979 -8.270575989e-24)
(0.02414464924 0.1809076184 0)
(0.07154122018 0.1606933359 4.36372235e-23)
(0.1190703399 0.1416495507 -2.273851941e-22)
(0.1644767324 0.1233181836 -9.027957934e-23)
(0.2062251152 0.1048117309 3.680734972e-23)
(0.2429643017 0.08507140235 -1.701654982e-23)
(0.2732207574 0.06296147812 3.429970532e-23)
(0.2952536103 0.03726293938 -6.592681802e-23)
(0.3066971055 0.006535069115 -9.303905621e-23)
(0.3049738308 -0.03087769972 1.517044261e-22)
(0.2863936245 -0.07786290914 0)
(0.247056808 -0.1399300365 1.505611041e-22)
(0.1810922232 -0.226629975 2.560013942e-22)
(0.0960445022 -0.3443894945 0)
(-0.00669761601 -0.4552210216 -3.675635113e-21)
(-0.01922408204 -0.3777537586 -2.892621125e-21)
(-0.02591951425 0.2276828791 -9.514204529e-22)
(-0.03998324767 0.2238216519 -1.388976427e-22)
(0.03656136889 0.1810585353 -2.335581865e-22)
(0.1090503058 0.1451059092 -1.19374216e-22)
(0.1817191208 0.1172445501 -4.295826308e-23)
(0.2490090742 0.09627907737 9.783184001e-23)
(0.3100336707 0.08002510555 -1.408592594e-22)
(0.3646209333 0.0665681549 1.297175537e-22)
(0.4126252493 0.05449179043 -8.620122042e-23)
(0.4536250298 0.04270895061 1.1321868e-25)
(0.4867878723 0.0303229853 1.527742005e-23)
(0.5107451364 0.01652901941 7.997206066e-23)
(0.5236597455 0.0005365149609 -1.811124081e-22)
(0.5231798012 -0.01863373211 -1.617146375e-22)
(0.5052323418 -0.04286478933 -4.26295478e-23)
(0.465871508 -0.07633231171 0)
(0.3952696496 -0.1286089383 -1.846477761e-22)
(0.2916071047 -0.2208468097 8.14876375e-22)
(0.1197455105 -0.3525016902 1.631601642e-21)
(0.02670547257 -0.3775497979 2.172655941e-21)
(0.2142894464 0.1347447203 9.86498949e-22)
(0.2776311181 0.09870503548 0)
(0.4316592294 0.05810414867 -2.59432082e-22)
(0.5304749357 0.03846264998 -1.741666662e-22)
(0.6016965764 0.02623419157 0)
(0.6571198971 0.01831923516 -6.009093836e-23)
(0.7015213611 0.01313600891 6.378003688e-23)
(0.7376042505 0.009542126797 -1.80015714e-23)
(0.766936842 0.006804464023 2.885975035e-23)
(0.7902106687 0.004464744233 2.31503375e-23)
(0.8074555011 0.002221320088 0)
(0.8182621354 -0.0001500748308 -2.873033431e-23)
(0.8216499714 -0.002723848202 0)
(0.8162394194 -0.005712668603 2.738151373e-23)
(0.7991333146 -0.009611382798 1.421692003e-23)
(0.7679986343 -0.01500255103 -5.799403703e-23)
(0.7106555753 -0.0250251995 -2.53566112e-22)
(0.6235183979 -0.04204285404 -6.91810201e-22)
(0.423009102 -0.09182968078 0)
(0.2705674689 -0.1524021841 -2.119483805e-21)
)


// ************************************************************************* //
