/*--------------------------------*- C++ -*----------------------------------*\
  =========                 |
  \\      /  F ield         | OpenFOAM: The Open Source CFD Toolbox
   \\    /   O peration     | Website:  https://openfoam.org
    \\  /    A nd           | Version:  13
     \\/     M anipulation  |
\*---------------------------------------------------------------------------*/
FoamFile
{
    format      ascii;
    class       vectorField;
    location    "40.48";
    object      U_all;
}
// * * * * * * * * * * * * * * * * * * * * * * * * * * * * * * * * * * * * * //


400
(
(1.100387919e-05 -3.783321992e-05 0)
(-0.0006660972658 0.0004130426066 -1.551128148e-23)
(-0.002185374639 0.0009203937358 0)
(-0.004047832532 0.001312780852 0)
(-0.005971868228 0.001535065555 6.84538284e-25)
(-0.007762783414 0.001569847679 4.150396487e-24)
(-0.009284545104 0.001423563773 -7.372299376e-24)
(-0.01043594059 0.001119723895 7.531817029e-24)
(-0.01113681305 0.0006960834268 -2.095354608e-25)
(-0.0113271104 0.0002030783003 -3.994694109e-24)
(-0.01097177242 -0.0003002333721 5.803630765e-24)
(-0.01007232869 -0.0007475167101 -5.92961301e-23)
(-0.008679881447 -0.001075563277 -6.552754351e-23)
(-0.006902854258 -0.001233044885 -7.78441933e-23)
(-0.004910738559 -0.001192638786 4.573625817e-24)
(-0.002927231215 -0.0009619204875 -4.137952428e-24)
(-0.001205297379 -0.0005912116228 -1.998767547e-22)
(-1.906635372e-05 -0.0001698828328 0)
(0.0005181554899 0.0001720857425 1.509898943e-25)
(0.0002227522379 0.0003059781544 -2.557137959e-24)
(-0.0002633636785 0.000828968086 1.383112374e-25)
(-0.002703306024 0.003383841342 1.560922471e-23)
(-0.006907277201 0.005604500999 1.555031661e-25)
(-0.0119523198 0.007008207139 -8.495602827e-25)
(-0.01713504378 0.007553775513 1.162173344e-24)
(-0.02197535321 0.007294199422 1.30685997e-23)
(-0.02611075959 0.006321894379 1.388366901e-24)
(-0.02926564639 0.004754193525 -7.283521789e-24)
(-0.03122672953 0.002737152021 1.015335255e-23)
(-0.03184200948 0.0004524057613 4.510049326e-24)
(-0.0310276142 -0.00188414497 -6.318903564e-24)
(-0.02879316632 -0.004023029674 2.961620175e-24)
(-0.02527138418 -0.00570835439 3.895583498e-23)
(-0.0207319498 -0.006707409289 -1.954781126e-24)
(-0.01558962709 -0.006854140223 3.754506747e-24)
(-0.01038513359 -0.006097465119 -9.741019325e-23)
(-0.005730270285 -0.004546188124 9.637737346e-23)
(-0.002233364346 -0.00250742103 -3.961491314e-25)
(-0.0001817742204 -0.0005023741478 4.061401535e-25)
(8.343556468e-05 0.0006099237411 0)
(-0.0004188233408 0.002935079248 -2.910507186e-25)
(-0.00464787494 0.008804014588 1.702148868e-23)
(-0.01137196066 0.01324042372 -8.281889374e-24)
(-0.01932729149 0.01579204121 -2.075118799e-25)
(-0.02747411706 0.01653000042 2.038587736e-25)
(-0.03511778729 0.01564441628 6.805914843e-27)
(-0.04171344626 0.0133599749 -1.220890253e-24)
(-0.04683571496 0.009919769553 -4.551324448e-25)
(-0.05014988722 0.005602431709 -1.063159408e-23)
(-0.05141231751 0.000744419204 0)
(-0.05047793154 -0.004241781277 0)
(-0.04733706219 -0.008887187233 2.671035988e-23)
(-0.04215927906 -0.0126817691 2.813034657e-23)
(-0.03531437474 -0.01513605121 -1.646171135e-24)
(-0.02738996311 -0.01586189531 4.845892378e-23)
(-0.01917005862 -0.01467334215 9.419319699e-23)
(-0.01156090579 -0.01169360526 3.975672004e-23)
(-0.00546540955 -0.007450745411 4.142087105e-25)
(-0.001451098071 -0.00293604637 1.073591554e-25)
(-9.072678908e-05 0.0002258747006 0)
(-0.0005024631968 0.006045350014 -4.249092652e-23)
(-0.006402739849 0.01637075503 -1.69237039e-23)
(-0.01553502411 0.02355933485 8.208716254e-24)
(-0.02627912036 0.02744162548 0)
(-0.03728746738 0.02832102144 0)
(-0.04769037422 0.02658772502 0)
(-0.05679662897 0.02263120259 -4.467851952e-26)
(-0.06405383832 0.01683609157 -2.136539893e-24)
(-0.06901081274 0.009622182173 0)
(-0.07130827642 0.001491048582 1.635487877e-24)
(-0.0707085331 -0.006936504778 2.802860855e-25)
(-0.06713039278 -0.01493018877 -2.810708813e-25)
(-0.06069905562 -0.02166728149 0)
(-0.05180750568 -0.02631605719 4.133385089e-23)
(-0.04114991728 -0.02816070829 -4.681604338e-23)
(-0.02971970215 -0.02677372205 -2.761954508e-23)
(-0.01873716563 -0.02221530543 -3.960818484e-23)
(-0.009488026634 -0.01521922294 7.795792734e-25)
(-0.00297687881 -0.007298196524 9.790250217e-23)
(-0.0002318792923 -0.0008661696218 0)
(-0.0005316133848 0.01009501604 4.269754094e-23)
(-0.007983592841 0.02595219524 4.785140868e-25)
(-0.01939687437 0.03642882731 -4.675849547e-25)
(-0.03282382387 0.04185520583 0)
(-0.04664688934 0.04289485117 7.782528517e-25)
(-0.05985229599 0.04020073951 -7.674621061e-25)
(-0.07163291284 0.03434741595 3.672166177e-23)
(-0.08132751089 0.02585664001 1.84812902e-23)
(-0.0883660083 0.01527298256 6.238679141e-24)
(-0.09225469218 0.003246146393 -1.637393237e-24)
(-0.09260379441 -0.00940783269 0)
(-0.08917555215 -0.02167477996 4.370819228e-25)
(-0.08195979063 -0.03236744988 1.009081775e-23)
(-0.07126885363 -0.04021250036 -4.34942509e-23)
(-0.05782018801 -0.04402046209 1.932955364e-24)
(-0.04278582935 -0.0429482923 4.217355037e-23)
(-0.02775450243 -0.03683346834 -3.841847232e-25)
(-0.01455062196 -0.02652720956 0)
(-0.004859461508 -0.01408454553 5.43653839e-23)
(-0.0003641479906 -0.002846954078 -2.565062534e-22)
(-0.0005272211565 0.01499927675 9.841316181e-23)
(-0.009377925341 0.03739022205 -4.907537192e-25)
(-0.02288182751 0.05170222878 0)
(-0.03883043459 0.05894182959 0)
(-0.05538656677 0.06025574441 -8.732036232e-23)
(-0.07142876557 0.05661900894 -8.49900459e-23)
(-0.08606654016 0.04880168641 -4.067410788e-23)
(-0.09855085824 0.03743980427 -1.504319833e-23)
(-0.1081945287 0.02315983921 -5.368744822e-24)
(-0.1143444697 0.006709679342 -8.174890684e-24)
(-0.1164046171 -0.01093292095 6.601010659e-24)
(-0.1138937364 -0.02848944933 8.826440512e-24)
(-0.1065486952 -0.04437046098 -1.892328168e-23)
(-0.0944680387 -0.05675333562 4.606050015e-24)
(-0.078268568 -0.06378298425 0)
(-0.05922895362 -0.06393495169 -1.57295545e-23)
(-0.0393398182 -0.05653816063 -2.426024158e-26)
(-0.02114188731 -0.04235808985 0)
(-0.007318702187 -0.02398229372 -1.520635163e-22)
(-0.0005216162781 -0.005925545033 6.056239148e-22)
(-0.0004990819186 0.02064574438 -9.774270791e-23)
(-0.01052950953 0.05045437938 2.831961923e-22)
(-0.0258295742 0.06912511465 1.526847298e-22)
(-0.0440213826 0.07849257679 3.619246768e-24)
(-0.0631073909 0.08029476192 -7.319318262e-23)
(-0.08190404947 0.07588042713 9.043454744e-23)
(-0.09947763482 0.06621690533 -3.590190747e-24)
(-0.1150227351 0.05201694961 -1.729156967e-24)
(-0.1277519147 0.03392358458 2.524141275e-24)
(-0.1368472561 0.01270233236 7.382531976e-24)
(-0.1414710477 -0.01058782211 -6.500765351e-24)
(-0.1408248136 -0.03446024201 -9.787837877e-24)
(-0.1342745929 -0.05692771499 -3.261750036e-23)
(-0.1215450211 -0.07553315969 -3.661253486e-23)
(-0.1029672639 -0.08754260275 5.645464218e-25)
(-0.07976369781 -0.09039209356 0)
(-0.05426682397 -0.08244513456 0)
(-0.02987160882 -0.06397736646 -2.906036998e-24)
(-0.01066285112 -0.03798794611 2.970485624e-24)
(-0.000735093576 -0.01050089461 1.027871498e-22)
(-0.0004479162943 0.02687250979 0)
(-0.01134923179 0.06480757207 2.001988058e-22)
(-0.02801599615 0.08829616874 8.9620914e-23)
(-0.04799857269 0.100123491 0)
(-0.06920601908 0.1027076522 1.569873593e-22)
(-0.09044373089 0.09781578378 0)
(-0.1107831668 0.08661102873 -1.42838414e-22)
(-0.1294093747 0.06983950284 6.515538008e-24)
(-0.1454771614 0.04808232208 0)
(-0.1580351787 0.02201755662 0)
(-0.1660133423 -0.007334438195 -1.37440598e-24)
(-0.1682671522 -0.03838839523 -9.316706174e-25)
(-0.1637064664 -0.06883975604 1.491971344e-22)
(-0.1515208735 -0.09558275465 -4.70465032e-23)
(-0.1315134535 -0.1148298626 -2.56093592e-24)
(-0.1045596062 -0.1225703378 1.534691984e-24)
(-0.07309349804 -0.1155517935 -1.558900631e-24)
(-0.04135021437 -0.09283115328 0)
(-0.01525230254 -0.05740767497 3.203799893e-24)
(-0.00104430906 -0.0171471443 -1.012911189e-21)
(-0.0003744665769 0.03346304336 0)
(-0.01175006022 0.07998918377 -1.128285819e-22)
(-0.02920707842 0.1086390899 -6.191135589e-22)
(-0.05031744927 0.1232233945 -3.755299385e-22)
(-0.07296317351 0.1269096993 0)
(-0.09598960116 0.1219255607 4.119446784e-22)
(-0.1185273477 0.109634862 1.260921291e-22)
(-0.1398146415 0.09078245754 -5.581823846e-24)
(-0.1590221545 0.06581393154 5.554196818e-24)
(-0.1751460995 0.03520881186 0)
(-0.1869559972 -0.0001967453949 2.912127584e-23)
(-0.1930172632 -0.0388975409 4.695831329e-24)
(-0.1917809894 -0.07843888228 -1.076805336e-22)
(-0.1817874418 -0.1151865344 8.004167958e-23)
(-0.162057042 -0.1442599429 -2.419739043e-22)
(-0.1327061989 -0.1598548593 0)
(-0.09577888072 -0.1563112852 0)
(-0.05601632999 -0.1302981055 0)
(-0.0214785911 -0.08381134924 0)
(-0.001500384607 -0.02665516226 5.572101655e-22)
(-0.000287390148 0.04016077551 0)
(-0.01169359598 0.09543611153 -3.493010073e-22)
(-0.02924438217 0.129407358 8.93278741e-22)
(-0.05060947186 0.1469299116 3.617171888e-22)
(-0.07370082543 0.1519748624 0)
(-0.09745151037 0.1472757921 -3.862545192e-22)
(-0.121106983 0.134419192 -3.174424562e-23)
(-0.1440324783 0.1141393302 3.333100816e-22)
(-0.1655143235 0.08670006573 1.769472808e-22)
(-0.1846248521 0.05229123574 -4.060148531e-23)
(-0.2001325808 0.01141716377 1.656821217e-23)
(-0.2104622436 -0.03471423875 -8.265242077e-24)
(-0.2137208517 -0.08376563271 3.371856212e-22)
(-0.2078215484 -0.131875631 0)
(-0.190823852 -0.1732756097 2.420908065e-22)
(-0.1616335723 -0.2002593353 5.774754087e-24)
(-0.1211662678 -0.2040121668 -5.860872753e-24)
(-0.07384989715 -0.1772119921 1.548440206e-22)
(-0.02971786787 -0.1188642302 -5.43543569e-24)
(-0.002179545131 -0.04005398638 0)
(-0.0002117199677 0.04671639822 0)
(-0.01125001068 0.1105498089 0)
(-0.02815624407 0.1497354954 -5.022750794e-22)
(-0.04874479233 0.170151755 -1.880995933e-23)
(-0.07100086562 0.1766257095 2.038376815e-23)
(-0.09399451428 0.1724526467 -2.014309335e-23)
(-0.1171434295 0.1594870954 -2.316881297e-23)
(-0.1400179503 0.1384805062 -3.029819727e-22)
(-0.1621328892 0.1095160708 6.698615458e-23)
(-0.182795904 0.07245187027 4.51317383e-23)
(-0.2009835559 0.02734929025 -4.57771732e-23)
(-0.2152270264 -0.02508697479 0)
(-0.223556221 -0.08298351003 -7.839674608e-23)
(-0.2234632191 -0.1427257291 0)
(-0.2120679424 -0.1981820838 -3.7395597e-22)
(-0.186743454 -0.2400773652 5.244948619e-22)
(-0.1464438295 -0.2560773369 0)
(-0.0939456765 -0.2331209467 -1.493986545e-22)
(-0.04022000948 -0.1639613632 1.93754325e-22)
(-0.003201100235 -0.05861063016 -3.411522818e-22)
(-0.0002015408596 0.05297584934 0)
(-0.01067261868 0.1248172352 9.182863616e-22)
(-0.02628446661 0.1687424534 -2.440683332e-23)
(-0.04501107797 0.1916455089 9.193333567e-22)
(-0.06494597501 0.1992921003 -2.51208501e-23)
(-0.0853662856 0.1956104274 2.838843217e-23)
(-0.1059305655 0.182788681 -2.812929286e-23)
(-0.1264924197 0.1616583487 -1.660917212e-23)
(-0.146899686 0.1321762291 -5.260226542e-22)
(-0.1668458173 0.09389646666 -8.906624007e-24)
(-0.1857303042 0.04640576441 9.660191534e-24)
(-0.2024781704 -0.01023784515 3.313076582e-22)
(-0.2154154629 -0.07499820037 -5.820737902e-22)
(-0.2220209727 -0.1450311804 0)
(-0.218803211 -0.2146760581 8.887319208e-22)
(-0.2016257526 -0.2740016384 -4.940881586e-22)
(-0.166863919 -0.3075811916 -1.572221443e-23)
(-0.1140220089 -0.2953811873 0)
(-0.05288481977 -0.2195802547 -1.89017707e-22)
(-0.004749188108 -0.08377277806 3.360580716e-22)
(-0.0003641984988 0.05902317636 1.55100963e-23)
(-0.01049573956 0.1379881469 -8.764191562e-22)
(-0.0244138956 0.1856804059 -1.157058591e-21)
(-0.04026724475 0.2101384704 -8.628982789e-22)
(-0.05630729683 0.2182348865 0)
(-0.07214856658 0.2146190229 3.513804767e-23)
(-0.0877922177 0.2018791925 -7.294865452e-23)
(-0.1034562811 0.1810005591 5.867883646e-23)
(-0.1193983898 0.1518997235 3.021365794e-22)
(-0.1357931577 0.1139150573 -1.128195467e-23)
(-0.1526082355 0.06621425082 0)
(-0.1694521411 0.008177205448 -3.603928524e-22)
(-0.1852760633 -0.0601598744 7.515666337e-22)
(-0.1980448549 -0.1372746982 8.831702058e-22)
(-0.2043546289 -0.2189261854 -5.296625253e-22)
(-0.1990977629 -0.2959712877 5.162687583e-22)
(-0.1760605338 -0.3514072551 1.078231179e-23)
(-0.1300890632 -0.3584150745 -1.095546191e-23)
(-0.06688803284 -0.2843276478 -8.215395334e-23)
(-0.007083319883 -0.1169964401 0)
(-0.0009095776433 0.06540041463 -1.911486124e-23)
(-0.01167591752 0.1502816385 -1.32696513e-21)
(-0.02388882128 0.2000659521 1.09423701e-21)
(-0.03601340516 0.2244216923 6.73492742e-22)
(-0.04657308877 0.2316588202 6.014629549e-22)
(-0.05577038682 0.227239366 6.643954883e-22)
(-0.06411245983 0.2141774849 -4.458676869e-23)
(-0.07227561935 0.1936494364 -3.461336619e-22)
(-0.08096973285 0.165602831 2.152162169e-22)
(-0.09087192689 0.1292707357 0)
(-0.1025547492 0.08353082573 0)
(-0.1163622197 0.02720010885 2.655396415e-22)
(-0.13215896 -0.04062005805 8.194326903e-23)
(-0.1489252355 -0.1200128283 -2.821622578e-22)
(-0.1641284312 -0.2089300661 -5.41127037e-23)
(-0.1727877643 -0.3006992474 1.301951713e-22)
(-0.1670311319 -0.3793329066 -3.400501805e-22)
(-0.1365292445 -0.4136451932 -1.593879941e-23)
(-0.0801825014 -0.353832617 8.204167905e-23)
(-0.01050762289 -0.1594130551 -6.032168585e-22)
(-0.002260498472 0.07348883475 0)
(-0.01580355715 0.1626521753 2.145873873e-21)
(-0.02665042701 0.2117904706 0)
(-0.03422339789 0.2333947233 -1.351807414e-21)
(-0.03759398735 0.2377766788 6.184053803e-23)
(-0.03799685556 0.2312553489 -6.193092652e-22)
(-0.03668266285 0.2171898984 -4.756282801e-22)
(-0.03489036794 0.1968934474 8.301253148e-22)
(-0.03378838416 0.1703342375 -1.885697806e-22)
(-0.03449876965 0.1367221078 0)
(-0.03811573241 0.09479673728 0)
(-0.0456499295 0.04304286755 2.410616294e-23)
(-0.05790804806 -0.02013781017 -6.007197234e-22)
(-0.07514599018 -0.09620649979 -4.30956599e-22)
(-0.09645175404 -0.1855556148 4.637861193e-22)
(-0.118346265 -0.2853567746 -6.488732544e-22)
(-0.1332715405 -0.3838386506 9.119945913e-23)
(-0.1265351 -0.4504358684 2.937367313e-23)
(-0.08899154114 -0.4198536345 5.660448572e-22)
(-0.01526917929 -0.2111719713 6.02080131e-22)
(-0.005180899546 0.0859804596 0)
(-0.0252555079 0.1766291181 1.46557951e-22)
(-0.03483408165 0.2205961529 -4.917142774e-23)
(-0.0364001412 0.2354859314 7.642927457e-22)
(-0.03018483346 0.2343406717 -7.005374914e-22)
(-0.01916579794 0.2241603851 4.746478842e-23)
(-0.005615154536 0.208352582 -1.018609308e-22)
(0.008569602853 0.1881241071 -3.389887707e-22)
(0.02179885634 0.1633911262 2.062822225e-22)
(0.03262780916 0.1333242734 0)
(0.03958458015 0.0966408628 0)
(0.04117012748 0.05174056595 -2.902667076e-22)
(0.03578483355 -0.003255396051 0)
(0.02198184269 -0.07058360658 -5.512185441e-22)
(-0.001264849517 -0.1525735489 -1.492378232e-23)
(-0.0331047015 -0.250594983 2.559738454e-23)
(-0.06909236014 -0.3599341498 2.203138716e-22)
(-0.09227827119 -0.4575424508 4.788115287e-24)
(-0.08718089958 -0.4698129392 -5.789417312e-22)
(-0.02103127146 -0.2698972281 0)
(-0.01111631546 0.1085974979 0)
(-0.04248901952 0.1947151675 -8.848476161e-22)
(-0.04795529134 0.2258195493 -5.411038477e-22)
(-0.03919536205 0.2282135529 4.54381534e-22)
(-0.01877830594 0.2182328107 -1.70998559e-24)
(0.007664310218 0.2028220331 -4.561047794e-23)
(0.03667992951 0.184761975 5.696679446e-22)
(0.06582998074 0.1647118204 -2.766889485e-23)
(0.09327130347 0.1423128174 -2.069781122e-22)
(0.1173891553 0.1166274942 3.142212552e-23)
(0.1365461634 0.08641143977 -3.425916167e-23)
(0.1489669219 0.05017669152 -3.690593097e-23)
(0.1525275738 0.006159168313 3.20563257e-22)
(0.1449366995 -0.04796126892 6.119604377e-22)
(0.1235159761 -0.1153052897 -5.101169705e-22)
(0.08633533203 -0.2004195638 -1.616056313e-22)
(0.03199089103 -0.3067806582 1.531309979e-22)
(-0.02362123279 -0.4239837134 7.29365573e-23)
(-0.0649241309 -0.4871612775 1.913292106e-21)
(-0.02509971701 -0.3291544733 2.954992034e-21)
(-0.0200468046 0.1460727412 -4.390206442e-23)
(-0.06416406329 0.2112955864 4.41737918e-23)
(-0.0507023076 0.2177300468 1.000188401e-21)
(-0.01934097543 0.2014679971 -8.270542735e-24)
(0.02414464723 0.1809076165 0)
(0.07154121785 0.1606933336 4.363720072e-23)
(0.119070337 0.1416495484 -2.273850865e-22)
(0.1644767289 0.1233181815 -9.027952654e-23)
(0.2062251112 0.1048117292 3.68073295e-23)
(0.2429642976 0.08507140103 -1.701654559e-23)
(0.2732207536 0.06296147726 3.429969474e-23)
(0.2952536071 0.03726293891 -6.592679158e-23)
(0.3066971029 0.006535068933 -9.303903879e-23)
(0.3049738288 -0.03087769972 1.517043511e-22)
(0.2863936232 -0.07786290905 0)
(0.2470568073 -0.1399300364 1.505609083e-22)
(0.1810922228 -0.226629975 2.560014222e-22)
(0.09604450191 -0.3443894943 0)
(-0.006697616089 -0.4552210213 -3.675635646e-21)
(-0.01922408198 -0.3777537583 -2.892621489e-21)
(-0.02591951309 0.2276828807 -9.514203071e-22)
(-0.03998324761 0.223821653 -1.388976069e-22)
(0.03656136712 0.1810585355 -2.335581894e-22)
(0.1090503041 0.1451059089 -1.193741913e-22)
(0.1817191187 0.1172445492 -4.295825026e-23)
(0.2490090721 0.09627907595 9.783176234e-23)
(0.3100336684 0.0800251038 -1.408591447e-22)
(0.3646209308 0.06656815307 1.297174719e-22)
(0.4126252465 0.05449178875 -8.620117198e-23)
(0.453625027 0.04270894924 1.132188947e-25)
(0.4867878697 0.0303229843 1.527741297e-23)
(0.5107451343 0.01652901876 7.997202714e-23)
(0.523659744 0.0005365145516 -1.811123296e-22)
(0.5231798005 -0.01863373227 -1.617145641e-22)
(0.5052323417 -0.04286478934 -4.262950022e-23)
(0.4658715083 -0.07633231167 0)
(0.3952696501 -0.1286089383 -1.846478854e-22)
(0.2916071051 -0.2208468098 8.148764894e-22)
(0.1197455107 -0.3525016902 1.631601826e-21)
(0.02670547265 -0.3775497979 2.17265604e-21)
(0.2142894466 0.1347447209 9.86498791e-22)
(0.2776311176 0.09870503511 0)
(0.4316592283 0.0581041486 -2.594320437e-22)
(0.5304749347 0.03846264975 -1.741666201e-22)
(0.6016965754 0.02623419127 0)
(0.657119896 0.01831923478 -6.00908885e-23)
(0.70152136 0.01313600842 6.37799792e-23)
(0.7376042493 0.009542126246 -1.800155576e-23)
(0.7669368405 0.00680446349 2.88597275e-23)
(0.7902106672 0.004464743784 2.31503225e-23)
(0.8074554999 0.002221319752 0)
(0.8182621346 -0.000150075061 -2.873032039e-23)
(0.8216499711 -0.002723848325 0)
(0.8162394198 -0.005712668655 2.738148981e-23)
(0.7991333153 -0.009611382801 1.42168972e-23)
(0.7679986353 -0.01500255102 -5.799405914e-23)
(0.7106555764 -0.02502519952 -2.535661778e-22)
(0.6235183987 -0.04204285408 -6.918102904e-22)
(0.4230091024 -0.09182968084 0)
(0.270567469 -0.1524021842 -2.119483901e-21)
)


// ************************************************************************* //
