/*--------------------------------*- C++ -*----------------------------------*\
  =========                 |
  \\      /  F ield         | OpenFOAM: The Open Source CFD Toolbox
   \\    /   O peration     | Website:  https://openfoam.org
    \\  /    A nd           | Version:  13
     \\/     M anipulation  |
\*---------------------------------------------------------------------------*/
FoamFile
{
    format      ascii;
    class       volScalarField;
    location    "30";
    object      p;
}
// * * * * * * * * * * * * * * * * * * * * * * * * * * * * * * * * * * * * * //

dimensions      [0 2 -2 0 0 0 0];

internalField   nonuniform List<scalar> 
400
(
5.035762219e-07
-0.0005469247716
-0.0008889804404
-0.001016472436
-0.000937596794
-0.0006847167606
-0.0002954267893
0.0001942730144
0.0007478749277
0.001324920802
0.001879780027
0.002359577333
0.002708897111
0.002874635693
0.002815269311
0.00251282209
0.001987775339
0.001297263591
0.0006383557873
4.246761453e-05
0.0005887247329
7.43648046e-06
-0.0003563020906
-0.0004986492565
-0.0004680081814
-0.0002909271962
3.204867715e-06
0.0003850705085
0.0008232389601
0.001280450212
0.001716885136
0.002081404563
0.002323636711
0.002396203946
0.002265224052
0.00192192329
0.001393058522
0.0007436929593
0.0001460593326
-0.0005166090165
0.0009529700253
0.0003085718027
-9.266491186e-05
-0.0002389964006
-0.0002328966987
-0.0001044205845
0.0001224140496
0.0004263212028
0.0007835504214
0.001162073828
0.001530090852
0.001833476894
0.00202231366
0.002047885953
0.001875057506
0.00149400746
0.0009287153642
0.0002357446838
-0.0004627087098
-0.001299664917
0.0009766804296
0.0002585036756
-0.0001917330479
-0.0003440081906
-0.0003532616346
-0.0002562925942
-7.372572959e-05
0.0001818659217
0.0004969489097
0.0008512771155
0.001203639861
0.001511114693
0.001712901549
0.001748476819
0.00156898165
0.001151034366
0.0005064569426
-0.0003180135361
-0.001233326544
-0.002384109542
0.0004810352555
-0.0002844660168
-0.0007633801986
-0.0009150734912
-0.0009360797431
-0.0008676415431
-0.0007247382118
-0.000507815647
-0.0002165751508
0.0001397430403
0.0005306989814
0.0009080120769
0.001200449911
0.001327125965
0.001211633438
0.0008007850085
8.053697746e-05
-0.0009170483692
-0.002127014081
-0.003655499123
-0.0006858048308
-0.001466583397
-0.001955642171
-0.00210670435
-0.002149479414
-0.002126116299
-0.002041722183
-0.001879094084
-0.001616978062
-0.001244940023
-0.0007785157127
-0.0002622462418
0.0002212406157
0.0005621095745
0.0006384497438
0.0003421340785
-0.0003924278749
-0.001563457573
-0.003134227847
-0.005141452346
-0.002661278379
-0.003422970266
-0.003914826918
-0.004080207845
-0.004177579939
-0.004246631151
-0.004277640052
-0.004228572151
-0.004046956713
-0.003688993036
-0.003140130039
-0.002426123569
-0.00163287457
-0.0009028057111
-0.0004242019147
-0.0003980748525
-0.0009876270927
-0.002259965098
-0.00423211582
-0.006827683611
-0.005554466847
-0.006269381669
-0.006767649849
-0.006981583895
-0.007194967969
-0.007442863813
-0.00769656548
-0.007881621995
-0.007901575525
-0.007660003067
-0.007086723484
-0.006158858509
-0.004943107577
-0.003604231864
-0.002413308169
-0.001713899618
-0.001842593627
-0.003014409077
-0.005367838787
-0.008661623674
-0.009434660615
-0.01008099936
-0.01059785645
-0.01091007876
-0.01132546443
-0.011875336
-0.01251070386
-0.01311907058
-0.01354722066
-0.01362277901
-0.01318188842
-0.01212052368
-0.01042742699
-0.008255965464
-0.005955750204
-0.004061341425
-0.003189618163
-0.003842524633
-0.006425918239
-0.01049109746
-0.01431639903
-0.01487539488
-0.01542238108
-0.01588161111
-0.0165894275
-0.01757953695
-0.01878637915
-0.02005849774
-0.02117697594
-0.02187302159
-0.02185679146
-0.02087166791
-0.01877132632
-0.01561950833
-0.01179449767
-0.00803677988
-0.005359356166
-0.004759625943
-0.007180648031
-0.01197872202
-0.02015388413
-0.02060411267
-0.02117430135
-0.02179629498
-0.02285162882
-0.02438985829
-0.02633870083
-0.02851306677
-0.03062699551
-0.03230292245
-0.03309467439
-0.03254012153
-0.03028190326
-0.02617811433
-0.0205243292
-0.01420338282
-0.00869101566
-0.005726103203
-0.007218756146
-0.01246590023
-0.02685589135
-0.02716165139
-0.02770208621
-0.02842249194
-0.02978867013
-0.03188857816
-0.03465833254
-0.03788906972
-0.041233338
-0.04420445497
-0.04618752711
-0.04647818021
-0.04446248891
-0.03965945242
-0.03212046017
-0.02269820987
-0.01326604377
-0.006485426457
-0.005808131545
-0.01076473105
-0.03433422983
-0.03441764652
-0.03478898679
-0.03540406114
-0.03689135062
-0.03940947136
-0.04291948107
-0.04719708757
-0.05183946272
-0.05625776968
-0.05967912809
-0.06119029995
-0.05977894045
-0.05465520681
-0.04544050689
-0.03269917319
-0.0184525787
-0.006245409558
-0.001673471285
-0.004873116976
-0.04260935184
-0.04227893727
-0.04219516601
-0.04229548348
-0.04351321168
-0.04611587732
-0.05009905977
-0.05521980247
-0.06101446706
-0.06679557363
-0.07163952548
-0.07441244156
-0.07383202413
-0.06867436889
-0.05807145681
-0.04206135232
-0.0224395825
-0.003256768694
0.00734750759
0.008341887603
-0.0520098472
-0.05076051838
-0.04967735829
-0.04857846323
-0.04892631824
-0.05111972208
-0.05517238745
-0.0607957102
-0.06743500108
-0.07428936575
-0.0802822549
-0.08407573046
-0.08413019288
-0.07883711083
-0.06684240269
-0.04752303306
-0.02212707742
0.005502174401
0.0247157654
0.03352779002
-0.06365545052
-0.06018876652
-0.05709693393
-0.05376399891
-0.05246514163
-0.05367979371
-0.05736461022
-0.06313779104
-0.07026224264
-0.07780070229
-0.08449240391
-0.08878564269
-0.08889799971
-0.08283930914
-0.06885042734
-0.04562047277
-0.01375116737
0.02441726244
0.05554001128
0.07735624272
-0.08018602681
-0.07107460403
-0.06412088547
-0.05716521038
-0.05343137703
-0.0532154512
-0.05625918663
-0.06191418835
-0.06925931597
-0.0771173
-0.08401257431
-0.08815205655
-0.08748052132
-0.0796562865
-0.06247917248
-0.03405011532
0.005565241289
0.05859446019
0.1058234814
0.1480681856
-0.1105074469
-0.08585477498
-0.07160676635
-0.05897182085
-0.05191423349
-0.0498839723
-0.05210376362
-0.05750989743
-0.06486070622
-0.07270958333
-0.07934101184
-0.08271433382
-0.08052010048
-0.06988703953
-0.04823214423
-0.01272220999
0.03823654849
0.1071325201
0.1779790824
0.2564769188
-0.1684376576
-0.09990896622
-0.07500907698
-0.05479872087
-0.04461987037
-0.04158639508
-0.04371900963
-0.04938292142
-0.05701856434
-0.06497212962
-0.07136300541
-0.07398129858
-0.07013012555
-0.05701364755
-0.03102828765
0.01192972244
0.07559989258
0.1664046551
0.2761624325
0.4377046995
-0.3984289428
-0.1381001169
-0.07497124494
-0.04708927646
-0.0335503539
-0.03003115288
-0.03280334396
-0.03926614025
-0.04755991724
-0.0559404647
-0.06250148516
-0.06503057054
-0.06099583535
-0.04696966623
-0.0187564933
0.02993585823
0.1069560934
0.2334276739
0.4198806269
0.780023811
)
;

boundaryField
{
    movingWall
    {
        type            zeroGradient;
    }
    fixedWalls
    {
        type            zeroGradient;
    }
    frontAndBack
    {
        type            empty;
    }
}


// ************************************************************************* //
