/*--------------------------------*- C++ -*----------------------------------*\
  =========                 |
  \\      /  F ield         | OpenFOAM: The Open Source CFD Toolbox
   \\    /   O peration     | Website:  https://openfoam.org
    \\  /    A nd           | Version:  13
     \\/     M anipulation  |
\*---------------------------------------------------------------------------*/
FoamFile
{
    format      ascii;
    class       scalarField;
    location    "30";
    object      p_all;
}
// * * * * * * * * * * * * * * * * * * * * * * * * * * * * * * * * * * * * * //


400
(
-1.745353743e-09
-0.0005189553873
-0.001149055008
-0.001632590052
-0.001851206713
-0.001756627582
-0.001325716091
-0.0005489667077
0.0005633735821
0.001966830787
0.003568194851
0.005219398566
0.006728069506
0.007888219685
0.008529146615
0.008570691622
0.00806608281
0.007216335597
0.006346202093
0.005799543437
0.0005255315448
-1.131729115e-05
-0.0005658239146
-0.0009509186723
-0.001112346201
-0.001023922732
-0.0006659074304
-2.477410489e-05
0.0008983829371
0.002073686847
0.003428147259
0.004838828118
0.006139889244
0.007149980468
0.007716574758
0.00776676742
0.007344898069
0.006618046897
0.005842099852
0.005285535925
0.001180243489
0.00050657913
-7.935996479e-05
-0.0004313850851
-0.0005781000912
-0.0005269977301
-0.0002643396921
0.0002306522865
0.00097246113
0.001952228513
0.003120056783
0.004373785432
0.00556196018
0.006507598098
0.007052176282
0.00710876451
0.006701795025
0.005967124153
0.005106969727
0.004381262126
0.001647694688
0.0007784001778
7.851164403e-05
-0.0003157703672
-0.00050768884
-0.0005371636234
-0.0003944486471
-4.710804695e-05
0.0005408636087
0.001386836711
0.002465525667
0.003690574495
0.004910853417
0.005930787833
0.006556544372
0.006658380176
0.006223003433
0.005359401533
0.004252129394
0.003228011585
0.001678828106
0.0006110092751
-0.0002288720232
-0.0007081815067
-0.000993734469
-0.001150558977
-0.001167092551
-0.0009932996426
-0.0005650265051
0.0001683804985
0.001212581468
0.002500704827
0.003878659354
0.005119260491
0.005968791591
0.006222218097
0.00579864359
0.00476815094
0.003317831675
0.001900274245
0.001067853915
-0.0001777753899
-0.001159760256
-0.00175261241
-0.002177256938
-0.002516107932
-0.002749657598
-0.0028041201
-0.002579513518
-0.001981533127
-0.0009606845231
0.0004501810412
0.002102103619
0.003733349768
0.005008342991
0.005605770874
0.005327864711
0.004168531877
0.002315410001
0.0004065858754
-0.000358890616
-0.001751235905
-0.002869419838
-0.003601708213
-0.004215082784
-0.004803499801
-0.005335358395
-0.005708329309
-0.005778628331
-0.005394468628
-0.004440964233
-0.002895648146
-0.0008733164126
0.001340505506
0.003313334602
0.004558500461
0.004685678645
0.003535807061
0.001259217596
-0.001252182538
-0.002736648883
-0.004238397217
-0.005483168721
-0.006380541417
-0.00723703876
-0.008155454663
-0.009091516295
-0.009912611026
-0.01042479472
-0.01040420805
-0.009645192744
-0.008027049513
-0.005590685581
-0.002608476499
0.0003956469692
0.002722794837
0.003686636788
0.002840862418
0.0001973372241
-0.003029983413
-0.006150925479
-0.007720079216
-0.009076637277
-0.01015899403
-0.01130938421
-0.01264116602
-0.01410160905
-0.01553072125
-0.01668208437
-0.01724739504
-0.01690233702
-0.01538247283
-0.0125901405
-0.008716551757
-0.004333094483
-0.000371413233
0.002069502189
0.002052732438
-0.0007521220385
-0.004774942072
-0.01062795423
-0.01221821914
-0.01365960862
-0.01492600605
-0.01639706643
-0.01820463043
-0.02029721164
-0.0224957151
-0.02450497043
-0.02592674443
-0.02629672676
-0.02516205815
-0.02221381821
-0.01746200594
-0.01142687579
-0.005230794558
-0.0004739352336
0.00115750886
-0.001351642016
-0.006143044199
-0.01613423178
-0.0176938371
-0.01916714911
-0.02056935988
-0.02233057406
-0.02461780337
-0.02739573938
-0.03047860278
-0.03353181084
-0.03607084638
-0.03748350741
-0.03709843044
-0.03433435196
-0.02890553235
-0.02113145481
-0.01218881585
-0.004172781912
0.0002278827669
-0.001166994523
-0.006467017468
-0.02259440032
-0.02406076196
-0.02546397686
-0.02686828869
-0.02878904494
-0.0314573714
-0.03487248525
-0.03885438059
-0.04303963464
-0.04686748321
-0.04958578694
-0.05030423581
-0.048118502
-0.04237446857
-0.03301923381
-0.02105453637
-0.008906589671
-0.000403942264
0.0005671382918
-0.004559591016
-0.02993940644
-0.03122146595
-0.03236457127
-0.03350235304
-0.03530835123
-0.03812172121
-0.04199307855
-0.04675319447
-0.05201317269
-0.05714352771
-0.0612652674
-0.063282398
-0.06199053821
-0.05631556982
-0.0457085306
-0.03073559995
-0.01382443894
0.0001596116124
0.005185244655
0.001569632701
-0.03820734864
-0.03913095918
-0.03966463212
-0.04007206775
-0.04131476009
-0.04389372487
-0.04791490058
-0.05320654555
-0.05934000515
-0.06561050686
-0.07101887904
-0.07428621988
-0.07393835951
-0.06850816021
-0.0569115018
-0.03908333429
-0.01703867753
0.003734573683
0.01493879355
0.01507443222
-0.04774588944
-0.04789922259
-0.04717501607
-0.04612224857
-0.04617938188
-0.04804267965
-0.05184063525
-0.05735442089
-0.06407520071
-0.07119378991
-0.07757741044
-0.08177058543
-0.08205771235
-0.07663092416
-0.06391931115
-0.04317490317
-0.01565286842
0.01321310193
0.0332476784
0.04049253885
-0.0595591257
-0.0579599773
-0.05476712336
-0.05117969761
-0.04930401406
-0.04996054944
-0.05319311984
-0.05864980929
-0.06567365703
-0.0733006741
-0.08022904538
-0.0848075215
-0.0850792021
-0.07892300274
-0.06434762959
-0.0399934935
-0.006207497286
0.03236077608
0.06452283078
0.08328439829
-0.07589609142
-0.07038675103
-0.06241304525
-0.05479360519
-0.05021736437
-0.04928401773
-0.05173637716
-0.05696167825
-0.06407251302
-0.07189091223
-0.07890487611
-0.08323612356
-0.0826598634
-0.07471214101
-0.05696103343
-0.0274532588
0.01439942032
0.06535181478
0.114265939
0.1500506419
-0.1038959211
-0.08770803415
-0.0698484892
-0.05620631568
-0.04831531873
-0.045654153
-0.04734194404
-0.05235142881
-0.05947522193
-0.06728541394
-0.0740505565
-0.07766183715
-0.07561886164
-0.06505768222
-0.04295157478
-0.006442593228
0.04645101549
0.1150589486
0.1912655203
0.2580644281
-0.1757582889
-0.11471027
-0.07355134405
-0.05190011748
-0.04119841034
-0.03752539015
-0.03911666201
-0.04443694855
-0.05190866047
-0.0598938796
-0.0665294057
-0.06955645587
-0.06628394811
-0.05350881361
-0.02748608617
0.01614374922
0.08238014816
0.1770145057
0.305053726
0.4524209506
-0.3556307838
-0.1550790853
-0.07035111702
-0.04277838802
-0.0313597843
-0.02755625985
-0.02963427565
-0.03570255819
-0.04384827278
-0.05229705789
-0.05915466822
-0.06216294733
-0.05858567353
-0.04507689847
-0.0173094151
0.03061806976
0.1081501974
0.2330611685
0.4345149824
0.7356055148
)


// ************************************************************************* //
