/*--------------------------------*- C++ -*----------------------------------*\
  =========                 |
  \\      /  F ield         | OpenFOAM: The Open Source CFD Toolbox
   \\    /   O peration     | Website:  https://openfoam.org
    \\  /    A nd           | Version:  13
     \\/     M anipulation  |
\*---------------------------------------------------------------------------*/
FoamFile
{
    format      ascii;
    class       surfaceScalarField;
    location    "30";
    object      phi;
}
// * * * * * * * * * * * * * * * * * * * * * * * * * * * * * * * * * * * * * //

dimensions      [0 3 -1 0 0 0 0];

internalField   nonuniform List<scalar> 
760
(
4.230249751e-06
-4.230038641e-06
-3.889046916e-05
4.31211983e-05
-0.0001304958477
9.160480731e-05
-0.0002548721826
0.000124376998
-0.0003962921088
0.0001414200484
-0.0005415288462
0.0001452370707
-0.0006788764804
0.0001373469322
-0.0007967954224
0.0001179194129
-0.0008833575575
8.656251904e-05
-0.0009269093224
4.355231329e-05
-0.000917930644
-8.977263812e-06
-0.000851739055
-6.61897588e-05
-0.0007312538067
-0.0001204846241
-0.0005688705164
-0.0001623825986
-0.0003863233459
-0.0001825458834
-0.0002117353348
-0.0001745876077
-7.383112615e-05
-0.000137904736
5.799174902e-06
-7.963034689e-05
2.20169449e-05
-1.62169932e-05
2.201651651e-05
-4.680407598e-05
4.257345407e-05
-0.0002070015953
0.000203318566
-0.0004674904641
0.000352093469
-0.0007960500831
0.0004529366056
-0.001158844229
0.0005042138883
-0.001524749503
0.0005111447881
-0.001864713129
0.0004773105936
-0.002150312491
0.0004035191103
-0.002353639205
0.0002898914363
-0.002449262045
0.0001391795912
-0.002418172906
-4.00635719e-05
-0.002252817032
-0.0002315418637
-0.001962065905
-0.0004112323925
-0.001574202331
-0.0005502449352
-0.001136241691
-0.0006205060785
-0.000708045442
-0.0006027830451
-0.0003508720607
-0.0004950768927
-0.0001117710729
-0.0003187302412
-6.469603287e-06
-0.0001215192118
1.55460445e-05
-0.0001102690286
0.000152842638
-0.0003997892159
0.0004928387841
-0.000823084905
0.0007753891035
-0.001331792559
0.0009616472498
-0.001879630209
0.001052051792
-0.002423720298
0.001055234504
-0.002923391848
0.0009769822868
-0.003338980092
0.0008191098398
-0.003632330264
0.0005832452839
-0.003769586671
0.0002764427088
-0.003726019838
-8.36270746e-05
-0.003491961541
-0.0004655996261
-0.003078633634
-0.0008245591899
-0.002522097552
-0.001106778262
-0.001883263634
-0.001259338418
-0.001241763821
-0.001244284721
-0.0006823621141
-0.001054480792
-0.000275043054
-0.0007260501764
-5.352308755e-05
-0.0003430412842
-3.797710913e-05
-0.0001705930533
0.0003234348532
-0.00058486218
0.0009071087121
-0.00116185765
0.001352382795
-0.001834662572
0.001634452776
-0.002546082374
0.001763469942
-0.00324518298
0.001754334791
-0.003884121875
0.001615922632
-0.004416354155
0.001351344925
-0.004797083972
0.0009639766833
-0.004986115543
0.0004654773249
-0.004952758736
-0.0001169821702
-0.00468209589
-0.0007362613295
-0.004181814553
-0.001324839434
-0.003488139755
-0.001800452534
-0.002668619736
-0.002078859763
-0.001818440307
-0.002094466533
-0.001046992443
-0.001825929121
-0.0004542773048
-0.001318767847
-0.000103116779
-0.0006942027763
-0.0001410938869
-0.0002243469977
0.0005477819252
-0.0007515606834
0.001434323167
-0.00146804202
0.002068863288
-0.002288852601
0.002455264431
-0.003147316067
0.002621932926
-0.003987164466
0.002594183234
-0.004756786611
0.002385544823
-0.005406034902
0.002000593756
-0.005885779284
0.001443721952
-0.006149997707
0.0007296969826
-0.00616011304
-0.0001068686951
-0.005891224346
-0.001005151207
-0.005340423669
-0.001875639132
-0.004535912173
-0.002604964308
-0.003544899536
-0.003069875434
-0.002475475041
-0.00316389308
-0.001466057462
-0.002835345756
-0.0006581167435
-0.002126710162
-0.0001571567105
-0.001195162094
-0.0002982502446
-0.0002698769455
0.0008176584834
-0.0008937652326
0.002058210374
-0.001730671645
0.002905769664
-0.002680308839
0.003404900924
-0.003668680933
0.003610302893
-0.004636747211
0.003562248281
-0.005532052787
0.00328085119
-0.006303629611
0.002772170104
-0.006899933252
0.002040024118
-0.007269403602
0.001099166892
-0.007363674428
-1.259905283e-05
-0.007143121878
-0.001225703414
-0.006586926177
-0.002431832862
-0.00570587366
-0.003486016208
-0.004557494874
-0.004218255351
-0.003257212705
-0.004464174936
-0.001975328454
-0.004117229202
-0.0009082537025
-0.003193783304
-0.000223170153
-0.001880246243
-0.0005214207886
-0.0003054468471
0.001123105556
-0.001005652891
0.002758415239
-0.001938751326
0.003838866249
-0.002992809586
0.004458957041
-0.004089126229
0.004706617441
-0.005168440149
0.004641559148
-0.006180232351
0.004292643106
-0.007075513442
0.003667449315
-0.007802676615
0.002767184236
-0.008305981386
0.001602470357
-0.008526551011
0.0002079721729
-0.008407568052
-0.001344682
-0.007903689446
-0.002935708946
-0.006998176452
-0.004391529642
-0.005725819075
-0.005490613117
-0.004197253466
-0.005992739474
-0.002610905223
-0.005703579115
-0.00123027778
-0.004574408396
-0.0003105904745
-0.002799937376
-0.0008320124661
-0.0003292511046
0.001452356193
-0.001081399626
0.003510562197
-0.002080820619
0.004838283108
-0.003207834286
0.005585967717
-0.004381627943
0.005880409794
-0.005545132192
0.00580506083
-0.006652492114
0.005400003294
-0.007659810448
0.004674766249
-0.008518749882
0.003626122642
-0.009172539612
0.00225626076
-0.00955451819
0.0005899539349
-0.009590657634
-0.00130853769
-0.009208138167
-0.003318228328
-0.008353497829
-0.005246173386
-0.007022584873
-0.006821527393
-0.005300452727
-0.007714871641
-0.003397594561
-0.007606440475
-0.001648779353
-0.006323223979
-0.000429786618
-0.004018933763
-0.001261799587
-0.0003400551966
0.001792410623
-0.001116607225
0.004287112437
-0.00214708957
0.005868762054
-0.003307480192
0.006746356666
-0.004517067902
0.007089997437
-0.005723109623
0.007011101299
-0.006887055834
0.006563950568
-0.007973563356
0.005761272175
-0.008942024206
0.004594583163
-0.009740101551
0.003054339209
-0.01029927327
0.001149126102
-0.01053365821
-0.00107415317
-0.01034495805
-0.003506930963
-0.009638026333
-0.005953107259
-0.008353665031
-0.008105888561
-0.006522855
-0.00954568045
-0.004335190955
-0.009794103748
-0.002182305965
-0.008476109946
-0.0005917031126
-0.005609535373
-0.001853502764
-0.0003382837506
0.00213069351
-0.001110926006
0.005059752682
-0.002133487225
0.006891321044
-0.003279938352
0.007892806945
-0.004471422589
0.008281483381
-0.00566144315
0.00820112203
-0.00682129015
0.007723797961
-0.007927789452
0.006867767927
-0.008953273014
0.00562006458
-0.00985706183
0.003958128415
-0.01057800876
0.001870072759
-0.01102868674
-0.0006234783826
-0.01109454188
-0.003441077836
-0.01064158555
-0.00640606139
-0.009545329469
-0.009202141777
-0.007752184147
-0.0113388239
-0.005381051527
-0.01216523354
-0.002835551068
-0.01102161145
-0.0008072890485
-0.007637796801
-0.002660793848
-0.0003275053799
0.002458197955
-0.001071582578
0.00580382929
-0.002047007455
0.007866746685
-0.003126622544
0.00897242201
-0.004235136506
0.009390000121
-0.005334483664
0.009300470025
-0.006408395263
0.008797708766
-0.007449335548
0.007908703766
-0.008447687664
0.006618413559
-0.009382061085
0.004892500196
-0.01020964485
0.002697656421
-0.01085517583
2.205210803e-05
-0.01120460195
-0.003091649309
-0.01109829046
-0.00651236917
-0.01034904206
-0.009951390054
-0.008796618193
-0.01289125045
-0.006431172582
-0.0145306836
-0.003586867338
-0.01386592057
-0.001085825559
-0.01013884538
-0.00374661995
-0.0003163783395
0.002774576029
-0.001017571972
0.006505023417
-0.001911494237
0.008760672098
-0.002869327974
0.009930256519
-0.003822206432
0.01034288073
-0.004744032653
0.01022229604
-0.00563415908
0.009687833917
-0.006503786786
0.008778328779
-0.007365298571
0.007479924821
-0.008222628867
0.005749829776
-0.009060656523
0.003535681822
-0.009833060866
0.0007944548899
-0.01044355065
-0.002481157962
-0.01073328464
-0.006222635253
-0.01047241889
-0.01021225747
-0.009392861972
-0.01397080598
-0.007307420708
-0.01661612693
-0.004371434318
-0.01680190517
-0.001430860955
-0.01307942358
-0.005177478947
-0.0003214158687
0.003095992379
-0.0009844591259
0.00716806719
-0.001772712806
0.009548928946
-0.002554934157
0.01071247947
-0.00327504815
0.01106299657
-0.003925558288
0.01087280364
-0.004526023374
0.01028829664
-0.005109103278
0.009361407919
-0.005711138863
0.008081960537
-0.006364126665
0.006402816757
-0.007086445988
0.004257999713
-0.007869815839
0.001577825247
-0.008658936901
-0.001692035669
-0.00932479685
-0.005556778505
-0.00963390316
-0.009903153281
-0.009239883943
-0.01436482004
-0.007761404945
-0.01809460367
-0.005064674388
-0.01949863261
-0.001831998716
-0.01631209824
-0.007009481598
-0.0003714701401
0.003467462759
-0.001029758286
0.007826354877
-0.001700641399
0.01021981305
-0.002253464105
0.01126530312
-0.002658979056
0.01146851437
-0.002940173457
0.01115399634
-0.003143562164
0.01049168316
-0.003325697995
0.00954354456
-0.003546542462
0.008302806538
-0.003864695116
0.00672096637
-0.004331454815
0.004724754998
-0.004980798498
0.002227168385
-0.005811080889
-0.0008617534913
-0.006753130775
-0.004614728551
-0.007619928954
-0.009036353984
-0.008048742653
-0.01393600555
-0.007498069462
-0.01864527886
-0.005472701564
-0.02152400238
-0.00225067711
-0.01953412185
-0.009260159511
-0.0005144703989
0.003981933342
-0.001236532393
0.008548416577
-0.001782066522
0.01076534645
-0.002038502858
0.01152173804
-0.002032354333
0.01146236786
-0.001836270859
0.01095791378
-0.001532627826
0.0101880399
-0.001203838502
0.009214755161
-0.00093108273
0.008030050579
-0.0007945985002
0.00658448206
-0.0008727013556
0.004802861134
-0.001237377763
0.00259185057
-0.001942627617
-0.0001565043371
-0.002997294118
-0.003560061004
-0.004308244423
-0.007725403154
-0.005580221952
-0.01266403214
-0.006204245761
-0.01802125606
-0.005329038028
-0.02239920424
-0.002597448003
-0.02226570964
-0.01185760831
-0.0008195409483
0.004801474442
-0.00169991083
0.009428786406
-0.002074989382
0.01114042553
-0.001911447286
0.01135819399
-0.001348680655
0.01089959934
-0.000536157158
0.01014539056
0.0003990527774
0.009252831016
0.001348931501
0.008264877456
0.002216017361
0.007162963964
0.002906070146
0.005894428002
0.003323077523
0.004385854562
0.003367334861
0.002547592595
0.002938402718
0.0002724209088
0.001950173546
-0.002571827459
0.0003757947557
-0.006151014895
-0.001638133727
-0.01065009837
-0.00355734374
-0.01610204914
-0.004286880598
-0.02166967343
-0.002697719787
-0.02385486445
-0.01455532763
-0.001353556944
0.006155030836
-0.002434166263
0.01050939352
-0.002414717927
0.01112097897
-0.001539901759
0.0104833749
-0.0001638228566
0.009523516339
0.001463733875
0.00851783216
0.003174388228
0.007542181389
0.004845106941
0.006594164845
0.006374640685
0.005633433786
0.007667416393
0.004601655252
0.008622649895
0.00343062475
0.009127153715
0.002043091244
0.009050888855
0.0003486857497
0.008249382666
-0.001770321003
0.006583130097
-0.004484766447
0.004003482365
-0.008070448334
0.0008075500188
-0.01290611334
-0.001907355248
-0.01895476756
-0.002264457267
-0.02349776696
-0.01681978672
-0.0021360423
0.008291072397
-0.002927890677
0.01130123532
-0.001702129487
0.009895216055
0.0005083993373
0.008272846127
0.003077025911
0.006954888369
0.005714555832
0.005880302389
0.008268943629
0.004987796588
0.01064423279
0.004218877554
0.01276645345
0.003511213898
0.0145621889
0.00280592455
0.01594545461
0.002047364304
0.01680890854
0.001179636336
0.01701493131
0.0001426671582
0.01639080229
-0.001146192387
0.01472010604
-0.002814077913
0.011767611
-0.005117958215
0.007442685311
-0.008581189264
0.00243355164
-0.01394563552
-0.0008902195309
-0.02017399543
-0.01771000419
-0.002485467649
0.0107765394
-1.054429924e-05
0.00882630389
0.004176217513
0.005708447522
0.008319760064
0.004129303491
0.0121058662
0.003168784547
0.01550464078
0.002481531469
0.01851805309
0.00197438941
0.02115267311
0.001584262871
0.02340572628
0.001258163992
0.02525509604
0.0009565570316
0.02665392797
0.0006485326466
0.02752423092
0.00030933152
0.0277519288
-8.502223535e-05
0.02717652095
-0.0005707828606
0.02555957617
-0.001197123752
0.02253912784
-0.002097512731
0.01761267608
-0.003654738942
0.0103967362
-0.006729701051
0.002472182779
-0.01224943699
-0.01523782293
0.01077653917
0.01960284313
0.0253112898
0.02944059194
0.03260937671
0.03509091065
0.0370653027
0.03864956562
0.03990772986
0.04086429018
0.04151282311
0.04182215053
0.0417371313
0.04116634123
0.03996921873
0.03787170273
0.03421696476
0.02748726268
0.0152378232
)
;

boundaryField
{
    movingWall
    {
        type            calculated;
        value           uniform 0;
    }
    fixedWalls
    {
        type            calculated;
        value           uniform 0;
    }
    frontAndBack
    {
        type            empty;
    }
}


// ************************************************************************* //
