/*--------------------------------*- C++ -*----------------------------------*\
  =========                 |
  \\      /  F ield         | OpenFOAM: The Open Source CFD Toolbox
   \\    /   O peration     | Website:  https://openfoam.org
    \\  /    A nd           | Version:  13
     \\/     M anipulation  |
\*---------------------------------------------------------------------------*/
FoamFile
{
    format      ascii;
    class       surfaceScalarField;
    location    "30";
    object      phi_0;
}
// * * * * * * * * * * * * * * * * * * * * * * * * * * * * * * * * * * * * * //

dimensions      [0 3 -1 0 0 0 0];

internalField   nonuniform List<scalar> 
760
(
-1.322146e-05
1.321590339e-05
-7.201887857e-05
5.879742503e-05
-0.0001620726803
9.005387077e-05
-0.0002652218208
0.000103149238
-0.0003682407124
0.0001030188142
-0.0004615020503
9.32610912e-05
-0.0005377474082
7.624518717e-05
-0.0005912393292
5.349205889e-05
-0.0006175064221
2.626751005e-05
-0.0006135864893
-3.91951188e-06
-0.000578457482
-3.512884884e-05
-0.0005138408649
-6.4616744e-05
-0.0004246583265
-8.918279138e-05
-0.0003192813144
-0.0001053771885
-0.0002092254776
-0.0001100558452
-0.0001081389567
-0.0001010864263
-2.992544e-05
-7.821345201e-05
1.414898817e-05
-4.407445523e-05
2.190936946e-05
-7.760499674e-06
2.190924625e-05
-6.870417982e-05
8.192009325e-05
-0.0002457753143
0.0002358684959
-0.0004934712088
0.000337749693
-0.0007722738273
0.0003819520434
-0.001050403354
0.0003811487138
-0.001302998437
0.0003458563787
-0.001510595439
0.0002838419491
-0.001657863013
0.0002007590462
-0.001733190631
0.0001015946016
-0.001729296888
-7.813391361e-06
-0.001643823491
-0.0001206020145
-0.001481407447
-0.000227032439
-0.001254376925
-0.0003162130947
-0.000983291717
-0.000376462413
-0.0006961400512
-0.0003972076725
-0.0004257310664
-0.0003714955658
-0.0002049935071
-0.0002989510879
-5.981269229e-05
-0.000189255313
-4.923277119e-07
-6.708086437e-05
2.141675153e-05
-0.000122933951
0.0002048541106
-0.0004149702872
0.0005279048892
-0.0008086635585
0.0007314427575
-0.001247157641
0.000820445875
-0.001684651201
0.0008186422609
-0.00208441745
0.0007456229458
-0.002416950997
0.0006163759529
-0.0026585606
0.0004423689337
-0.002790975868
0.0002340098364
-0.002802398508
3.609054674e-06
-0.002687888574
-0.0002351121808
-0.002452950108
-0.0004619710016
-0.002114162649
-0.0006550004869
-0.0017003677
-0.000790257211
-0.001251818178
-0.0008457570446
-0.000816742468
-0.0008065711418
-0.0004446224223
-0.0006710709939
-0.0001762318827
-0.0004576457404
-3.221222243e-05
-0.0002111005659
-1.079555056e-05
-0.000172077501
0.0003769315961
-0.0005725571526
0.0009283848059
-0.001105960539
0.001264846257
-0.001698025324
0.001412510507
-0.002290582285
0.001411198911
-0.00283723648
0.001292276924
-0.0033001969
0.001079336416
-0.003648270137
0.0007904424109
-0.003856316593
0.0004420565023
-0.003905794583
5.30870488e-05
-0.003787727884
-0.0003531790011
-0.003504007608
-0.00074569145
-0.003071258341
-0.001087749839
-0.002522620039
-0.001338895439
-0.001907988606
-0.001460388276
-0.001290900848
-0.001423658649
-0.000740751742
-0.00122121987
-0.0003202698857
-0.0008781274479
-7.11020378e-05
-0.0004602684494
-8.189762539e-05
-0.0002170207973
0.0005939522259
-0.0007188285691
0.001430192647
-0.001385646589
0.001931664526
-0.002127109579
0.002153973694
-0.002874355689
0.002158445025
-0.003573173077
0.00199109415
-0.00417895414
0.001685117319
-0.004653557279
0.001265045536
-0.004964170792
0.0007526701272
-0.005083990031
0.0001729063995
-0.004994997625
-0.0004421713743
-0.004691166073
-0.001049523072
-0.004183498759
-0.001595417252
-0.003504374405
-0.00201801981
-0.002710438799
-0.002254323768
-0.001881570407
-0.002252526836
-0.001113228872
-0.001989561193
-0.0005008191398
-0.001490537052
-0.0001191416828
-0.0008419459361
-0.0002010393128
-0.0002573650813
0.0008513172645
-0.0008513344631
0.002024161834
-0.001642286463
0.002722616503
-0.002526541771
0.003038229116
-0.003426880558
0.003058783956
-0.004283363758
0.002847577416
-0.005046186339
0.002447939867
-0.005670987391
0.001889846529
-0.006116719612
0.001198402338
-0.00634595023
0.0004021370459
-0.006327813072
-0.0004603085115
-0.006042448543
-0.001334887628
-0.00548829962
-0.002149566246
-0.004689962202
-0.002816357287
-0.003705712496
-0.003238573467
-0.002631172949
-0.003327066301
-0.001594220731
-0.003026513294
-0.0007363843485
-0.002348373358
-0.0001821199347
-0.001396210364
-0.0003831592394
-0.0002911823529
0.001142499782
-0.0009641196546
0.00269709907
-0.001864153205
0.003622649906
-0.002878129732
0.00405220555
-0.003923443485
0.004104097728
-0.004936975874
0.003861109907
-0.005865859391
0.003376823492
-0.006660969983
0.002684957187
-0.007273406226
0.00181083861
-0.007653939643
0.000782670461
-0.007755773082
-0.0003584750997
-0.007539758058
-0.001550902704
-0.006984000396
-0.002705323981
-0.006095791424
-0.003704566339
-0.004925686131
-0.004408678823
-0.003579466983
-0.004673285474
-0.00222038028
-0.004385599981
-0.001050841882
-0.003517911735
-0.0002684667925
-0.002178585454
-0.0006516260234
-0.0003159640138
0.001458463909
-0.001048732426
0.003429867629
-0.002034521952
0.004608439396
-0.003154889028
0.005172572507
-0.004325113499
0.005274322102
-0.005481825287
0.00501782169
-0.006571904538
0.004466902823
-0.007544090641
0.003657143404
-0.008343779229
0.002610527299
-0.008911097839
0.001349989123
-0.009182774228
-8.679871809e-05
-0.009096982399
-0.001636694586
-0.008604556544
-0.003197749912
-0.00768417495
-0.004624948016
-0.006364048812
-0.005728805041
-0.004746028871
-0.006291305474
-0.003022872952
-0.006108755928
-0.001469576714
-0.00507120798
-0.0003882432804
-0.00325991888
-0.001039869298
-0.0003291944653
0.001787658339
-0.001096439003
0.00419711231
-0.002135071809
0.005647072271
-0.003325356337
0.00636285701
-0.004583635456
0.006532601143
-0.005849353531
0.006283539699
-0.007072552128
0.005690101416
-0.008203799677
0.004788391021
-0.009187231784
0.00359395952
-0.009956866442
0.002119623892
-0.01043604236
0.0003923772593
-0.01054222354
-0.001530513395
-0.01019501044
-0.00354496305
-0.009334067073
-0.005485891438
-0.00794661021
-0.00711626195
-0.006105912109
-0.008132003606
-0.004012920344
-0.008201747704
-0.002014587821
-0.007069540501
-0.0005528007186
-0.004721705971
-0.001592670014
-0.0003297922815
0.002117450571
-0.00110169954
0.004969019589
-0.002151418538
0.00669679132
-0.003361070208
0.007572508712
-0.004650835106
0.007822366026
-0.005965943899
0.007598648444
-0.007263364456
0.006987521934
-0.008500549615
0.00602557619
-0.009626994602
0.004720404584
-0.01057858513
0.003071214548
-0.01127457763
0.001088369872
-0.01161813134
-0.001186959604
-0.0115016121
-0.003661482255
-0.01082050999
-0.006166993534
-0.009502986624
-0.008433785312
-0.00756059637
-0.01007439384
-0.005160864134
-0.01060147992
-0.002696110381
-0.009534294234
-0.0007741486993
-0.006643667639
-0.002366818712
-0.0003199349963
0.002437385604
-0.001066686509
0.005715771072
-0.002080422917
0.007710527732
-0.003246812475
0.008738898298
-0.004492304668
0.009067858236
-0.0057708691
0.008877212859
-0.007050311339
0.008266964136
-0.008300537174
0.007275802005
-0.009484297182
0.005904164623
-0.01054995785
0.004136875308
-0.011425616
0.00196402814
-0.01201416724
-0.0005984082462
-0.012193789
-0.003481860417
-0.01182096232
-0.006539820156
-0.01075537126
-0.009499376321
-0.008913743015
-0.01191602204
-0.006370851146
-0.01314437175
-0.00349896077
-0.01240618458
-0.001063149795
-0.009079478604
-0.003429968504
-0.0003074102068
0.002744795893
-0.001006589532
0.006414950403
-0.001938357981
0.008642296188
-0.002991902962
0.009792443308
-0.004102818122
0.01017877342
-0.005237454379
0.01001184911
-0.006378634324
0.00940814404
-0.007514091177
0.00841125881
-0.00862734019
0.00701741362
-0.009689853397
0.005199388546
-0.01065315184
0.002927326652
-0.01143757692
0.0001860169148
-0.01192946384
-0.002989973418
-0.0119649958
-0.00650428813
-0.0113437414
-0.01012063066
-0.00986896737
-0.01339079603
-0.007460111891
-0.01555322719
-0.004363831955
-0.01550246449
-0.001425534376
-0.01201777617
-0.004855502874
-0.0003089297591
0.003053725704
-0.0009555717383
0.00706159241
-0.001768497382
0.009455221873
-0.002639400712
0.0106633467
-0.003518274736
0.01105764749
-0.004389737663
0.01088331203
-0.005256736471
0.01027514279
-0.006129533835
0.009284056093
-0.007017728126
0.007905607846
-0.00792334885
0.006105009243
-0.008832235853
0.003836213662
-0.009704236428
0.001058017521
-0.01045074643
-0.002243463377
-0.010924137
-0.006030897528
-0.01089504114
-0.01014972648
-0.0100648959
-0.01422094125
-0.008157308731
-0.01746081433
-0.005167631791
-0.01849214141
-0.001854348403
-0.01533105955
-0.006709851267
-0.0003552721648
0.003408997868
-0.0009733394557
0.007679659693
-0.001646068483
0.01012795096
-0.002268726054
0.01128600436
-0.002816859857
0.01160578136
-0.003303717101
0.01137016928
-0.003759436561
0.01073086219
-0.004220953727
0.009745573169
-0.004726177651
0.008410831687
-0.005309794373
0.00668862591
-0.005996688357
0.004523107622
-0.006791829014
0.001853158171
-0.007660614231
-0.00137467816
-0.008503054644
-0.005188457109
-0.009113198759
-0.009539582356
-0.009142522906
-0.01419161708
-0.008128409363
-0.01847492785
-0.005711159903
-0.02090939086
-0.002318285131
-0.01872393431
-0.009028136386
-0.0005003795305
0.003909377361
-0.001151304163
0.008330584257
-0.001674834805
0.01065148163
-0.001981660134
0.01159282979
-0.002095697669
0.011719819
-0.002075765362
0.01135023703
-0.001988510231
0.01064360706
-0.001901186733
0.009658249628
-0.001878963728
0.008388608638
-0.00198600784
0.006795669994
-0.002282502862
0.004819602633
-0.002818789982
0.002389445287
-0.003622184024
-0.0005712841217
-0.004668871372
-0.004141769763
-0.0058346591
-0.008373794625
-0.006807682439
-0.01321859374
-0.007016681288
-0.01826592899
-0.005716407087
-0.02220966504
-0.002739568494
-0.02170077288
-0.01176770487
-0.0008308879407
0.004740265236
-0.001604840958
0.009104537177
-0.001950994242
0.01099763493
-0.001839404523
0.01148124017
-0.001385462725
0.01126587733
-0.000718164541
0.01068293896
4.817676616e-05
0.009877265821
0.0008163666122
0.008890059826
0.001495322218
0.007709653062
0.001998386658
0.00629260558
0.002238481928
0.004579507388
0.002128321903
0.002499605331
0.001583129779
-2.609198612e-05
0.0005450046091
-0.003103644589
-0.0009843377195
-0.006844452294
-0.002828420485
-0.01137451097
-0.004459139699
-0.01663520977
-0.00481049695
-0.02185830778
-0.002944293133
-0.02356697668
-0.014711998
-0.001465684613
0.006205949762
-0.002379883595
0.01001873611
-0.002373458225
0.01099120959
-0.001603562006
0.01071134404
-0.0003496526772
0.01001196814
0.001163611323
0.009169675098
0.002771807516
0.008269069756
0.004349497929
0.007312369513
0.005791587565
0.006267563502
0.006997980244
0.005086212961
0.007865461125
0.003712026552
0.00828225623
0.00208281026
0.008123796956
0.0001323673102
0.007264474887
-0.002244322508
0.005585194618
-0.005165172018
0.003073858282
-0.008863174624
7.896223328e-05
-0.01364031371
-0.002445753924
-0.01933359163
-0.002601080354
-0.02341165024
-0.01731307835
-0.002365504878
0.008571454568
-0.002963812505
0.01061704378
-0.001922822571
0.00995021973
8.110118579e-05
0.008707420323
0.002534867519
0.007558201872
0.005140231398
0.006564311297
0.007719725862
0.005689575367
0.01015459195
0.004877503488
0.01234954371
0.004072611784
0.01421197379
0.003223782928
0.01564051417
0.0022834862
0.01651756627
0.001205758187
0.01669708007
-4.714647613e-05
0.01602711023
-0.001574352653
0.0143050772
-0.00344313897
0.01133282061
-0.00589091802
0.007055605633
-0.009363098726
0.002201618623
-0.01447960461
-0.001027322735
-0.02018270888
-0.01834040108
-0.002150342378
0.01072179694
-7.199466791e-05
0.008538696224
0.003741896258
0.006136328774
0.007719767097
0.004729549478
0.01156186103
0.003716107916
0.01514099645
0.002985175832
0.01839883874
0.002431733046
0.02130153596
0.00197480624
0.02381241339
0.001561734323
0.02587971515
0.001156481161
0.0274305511
0.0007326502545
0.02836471285
0.0002715964432
0.02857560548
-0.000258039081
0.02788765621
-0.0008864033573
0.02609933482
-0.001654817555
0.0229082611
-0.002699844285
0.01790696341
-0.004361801019
0.01076690588
-0.007339547063
0.002912179384
-0.01232798238
-0.0154282217
0.01072179698
0.01926049317
0.02539682189
0.03012637129
0.03384247915
0.03682765494
0.03925938795
0.04123419417
0.04279592848
0.04395240964
0.0446850599
0.04495665636
0.0446986173
0.04381221396
0.04215739642
0.03945755214
0.03509575113
0.02775620407
0.0154282217
)
;

boundaryField
{
    movingWall
    {
        type            calculated;
        value           uniform 0;
    }
    fixedWalls
    {
        type            calculated;
        value           uniform 0;
    }
    frontAndBack
    {
        type            empty;
    }
}


// ************************************************************************* //
