/*--------------------------------*- C++ -*----------------------------------*\
  =========                 |
  \\      /  F ield         | OpenFOAM: The Open Source CFD Toolbox
   \\    /   O peration     | Website:  https://openfoam.org
    \\  /    A nd           | Version:  13
     \\/     M anipulation  |
\*---------------------------------------------------------------------------*/
FoamFile
{
    format      ascii;
    class       surfaceScalarField;
    location    "30";
    object      phi_0;
}
// * * * * * * * * * * * * * * * * * * * * * * * * * * * * * * * * * * * * * //

dimensions      [0 3 -1 0 0 0 0];

internalField   nonuniform List<scalar> 
760
(
4.155699777e-06
-4.155340081e-06
-3.889113129e-05
4.304735035e-05
-0.0001302664157
9.1374563e-05
-0.0002543039764
0.0001240382519
-0.0003953200491
0.0001410162095
-0.0005401234962
0.0001448038133
-0.0006770452084
0.0001369209629
-0.0007945898322
0.0001175452179
-0.0008808811642
8.629177002e-05
-0.0009243177524
4.343721925e-05
-0.0009154187238
-8.897366859e-06
-0.0008495133003
-6.59033513e-05
-0.000729493404
-0.0001200191725
-0.0005676850047
-0.0001618075543
-0.0003857201901
-0.0001819633299
-0.0002116114616
-0.0001741082793
-7.399788807e-05
-0.0001376141683
5.560623556e-06
-7.955853786e-05
2.187876173e-05
-1.631725296e-05
2.187826718e-05
-4.669607359e-05
4.254005017e-05
-0.0002064152484
0.0002027662192
-0.0004661206392
0.0003510795933
-0.0007936795657
0.0004515970448
-0.001155359007
0.0005026954083
-0.001520133905
0.0005095815654
-0.001859053145
0.0004758403029
-0.002143801689
0.0004022942613
-0.002346580397
0.0002890730589
-0.002442051048
0.0001389128859
-0.00241126014
-3.968489608e-05
-0.002246647343
-0.0002305117207
-0.001957007529
-0.0004096551663
-0.001570477225
-0.0005483364823
-0.001133875931
-0.0006185640862
-0.0007068585128
-0.000601124727
-0.000350517875
-0.0004939534061
-0.0001118320734
-0.0003182431467
-6.596733239e-06
-0.0001215534404
1.528051103e-05
-0.0001099047228
0.0001524448699
-0.0003984798679
0.0004913411352
-0.0008204005667
0.0007730000936
-0.001327471165
0.0009586709773
-0.001873564746
0.001048789378
-0.002415948655
0.001051965182
-0.002914097829
0.000973989694
-0.003328495235
0.0008166945286
-0.003621124718
0.0005817068628
-0.003758237613
0.0002760334625
-0.003715156739
-8.276189752e-05
-0.003482191063
-0.000463476683
-0.003070456827
-0.0008213880578
-0.002515830961
-0.001102959204
-0.001878980324
-0.001255412872
-0.001239272854
-0.001240834268
-0.0006812449507
-0.001051983799
-0.0002747563417
-0.0007247327769
-5.355596172e-05
-0.0003427561212
-3.827557073e-05
-0.0001699667325
0.0003224105935
-0.0005828168838
0.0009041920846
-0.00115787831
0.001348059489
-0.001828483811
0.001629277175
-0.002537639193
0.001757942965
-0.003234586554
0.001748912308
-0.003871653049
0.00161105793
-0.004402457242
0.001347501921
-0.004782347444
0.0009615989392
-0.004971231523
0.0004649210966
-0.004938464355
-0.0001155270353
-0.004669097113
-0.0007328426676
-0.004170711432
-0.001319772546
-0.00347934834
-0.001794321704
-0.00266230334
-0.002072459357
-0.001814466758
-0.002088673567
-0.001044943697
-0.001821507445
-0.0004535346752
-0.001316144699
-0.0001030204542
-0.0006932714228
-0.0001412959953
-0.0002234984425
0.0005459090559
-0.0007489029341
0.001429597285
-0.001463005374
0.002062160972
-0.002281189597
0.002447462672
-0.003137013821
0.002613766714
-0.00397440227
0.002586300854
-0.004741918178
0.002378573933
-0.00538957258
0.001995157017
-0.005868367771
0.001440395244
-0.006132373899
0.0007289286718
-0.006143060064
-0.0001048429641
-0.005875495478
-0.00100040863
-0.005326696824
-0.00186857013
-0.004524715011
-0.002596303852
-0.003536530497
-0.003060647378
-0.002469927748
-0.003155278748
-0.001462981759
-0.002828452441
-0.0006568606115
-0.002122267658
-0.0001569165553
-0.001193214713
-0.0002982122057
-0.0002688851647
0.0008147937792
-0.0008907243654
0.002051435239
-0.001724990088
0.002896426693
-0.002671765676
0.003394237479
-0.003657308414
0.003599307095
-0.004622771131
0.003551762225
-0.005515862074
0.003271665767
-0.006285752124
0.002765046561
-0.006881005825
0.002035647359
-0.007250133409
0.001098055738
-0.007344843168
-1.013461059e-05
-0.007125455643
-0.00121979577
-0.006571149838
-0.002422873695
-0.005692618638
-0.003474834385
-0.00454722116
-0.004206046255
-0.003250101164
-0.004452398504
-0.001971176273
-0.004107376429
-0.0009064393856
-0.003187002851
-0.0002227701362
-0.001876884522
-0.0005209827821
-0.0003044226764
0.001119216687
-0.0010025404
0.00274955162
-0.001932972041
0.003826856287
-0.002984169757
0.004445432741
-0.004077687136
0.004692822069
-0.005154446976
0.004628518643
-0.006164071718
0.004281290185
-0.007057681533
0.003658654248
-0.007783749543
0.002761711945
-0.008286591027
0.001600895738
-0.00850732601
0.0002106021004
-0.008389215918
-0.00133790086
-0.007886894825
-0.002925191902
-0.006983618582
-0.004378111208
-0.005714102887
-0.005475562512
-0.004188784679
-0.005977715632
-0.002605717305
-0.005690445699
-0.001227883537
-0.004564834112
-0.0003100122817
-0.002794760143
-0.0008309964188
-0.0003283250759
0.001447541217
-0.001078576404
0.003499801117
-0.002075571824
0.004823847039
-0.003199991665
0.005569849188
-0.004371264982
0.005864093816
-0.005532489618
0.005789740384
-0.006637925219
0.00538672611
-0.007643748736
0.004664476175
-0.008501662913
0.003619624969
-0.009154912818
0.002254146457
-0.009536840246
0.0005925330909
-0.009573448188
-0.001301287395
-0.009191954381
-0.003306685597
-0.008338962391
-0.005231107192
-0.007010367838
-0.006804158752
-0.005291169478
-0.007696914049
-0.003391589342
-0.00759002946
-0.001645842813
-0.006310581001
-0.0004290171629
-0.004011589919
-0.001260014095
-0.0003393603965
0.001786900754
-0.001114441203
0.004274879826
-0.002143012045
0.005852413975
-0.003301348226
0.006728183468
-0.004508953818
0.00707169923
-0.005713232989
0.006994018145
-0.006875723845
0.006549218215
-0.007961121272
0.005749871776
-0.008928813036
0.004587316295
-0.009726431069
0.003051765789
-0.01028541818
0.001151520796
-0.01051988655
-0.001066819488
-0.01033156906
-0.003495006003
-0.009625434518
-0.005937244355
-0.008342456112
-0.008087137102
-0.006513756151
-0.009525612661
-0.004328870272
-0.009774914463
-0.002178980161
-0.008460472126
-0.0005907488004
-0.00559981981
-0.001850762896
-0.0003379361054
0.002124835879
-0.001109742259
0.005046683667
-0.00213115277
0.006873821898
-0.003276337781
0.007873367511
-0.004466615821
0.008261979122
-0.005655615408
0.008183017926
-0.006814690695
0.00770829396
-0.00792067341
0.006855850451
-0.00894584845
0.005612488773
-0.009849452422
0.003955370107
-0.01057024373
0.001872311908
-0.01102074832
-0.0006163185433
-0.01108635692
-0.003429399844
-0.01063321506
-0.006390383819
-0.009537088509
-0.009183260438
-0.007744726198
-0.01131797283
-0.005375269618
-0.01214436777
-0.002832165736
-0.01100357719
-0.0008061968535
-0.007625787833
-0.00265696196
-0.0003275838465
0.002452418653
-0.001071613038
0.005790712162
-0.002046833696
0.007849043398
-0.003126158951
0.008952692777
-0.004234416941
0.009370240225
-0.005333640699
0.009282242612
-0.006407604995
0.008782257316
-0.007448755096
0.007896995455
-0.008447394481
0.006611124579
-0.009382004336
0.00488997802
-0.01020960183
0.002699909278
-0.01085492822
2.900727365e-05
-0.01120360885
-0.00308071657
-0.01109620867
-0.006497779676
-0.01034576209
-0.009933706752
-0.008792490305
-0.01287124755
-0.006427085582
-0.01450977753
-0.003583963127
-0.01384670424
-0.001084706827
-0.0101250519
-0.003741669376
-0.0003169100412
0.002769328409
-0.001018913746
0.006492716436
-0.001913670713
0.008743803897
-0.002872282877
0.009911305877
-0.00382592759
0.01032388739
-0.004748568199
0.01020488292
-0.005639578673
0.009673266197
-0.006510125613
0.008767539201
-0.007372500546
0.007473498979
-0.008230503911
0.005747980646
-0.009068864622
0.003538267471
-0.009840935494
0.0008010763392
-0.01045051362
-0.002471136668
-0.01073856952
-0.006209723865
-0.01047544127
-0.01019683692
-0.009393489455
-0.01395319785
-0.007306234269
-0.01659703521
-0.004369711762
-0.01678322462
-0.001429899489
-0.01306486981
-0.005171566529
-0.0003223696218
0.003091698598
-0.0009870493626
0.00715739684
-0.001777153182
0.009533911234
-0.002561194688
0.01069534921
-0.003283045501
0.0110457403
-0.003935211249
0.01085704577
-0.004537241092
0.01027529326
-0.005121751121
0.009352048311
-0.005725002179
0.008076750235
-0.006378882381
0.006401859956
-0.007101633788
0.004261017161
-0.007884788961
0.001584232016
-0.008672931781
-0.001682992381
-0.009336899541
-0.005545759712
-0.009643206896
-0.00989053187
-0.009245765224
-0.01435063356
-0.007763903341
-0.01807889441
-0.005064793984
-0.01948233001
-0.001831424803
-0.01629823796
-0.007002995977
-0.000372755289
0.003464454155
-0.001033362197
0.0078180033
-0.001706960177
0.01020751023
-0.002262494036
0.01125088411
-0.002670546417
0.01145379591
-0.00295402688
0.0111405243
-0.003159397742
0.01048066161
-0.003343162039
0.009535813518
-0.003565231309
0.008298821337
-0.003884158107
0.006720783427
-0.004351189331
0.004728043366
-0.005000227825
0.002233269821
-0.005829531685
-0.0008536886998
-0.006769782305
-0.004605509143
-0.007633831237
-0.009026481631
-0.008058979999
-0.01392548401
-0.007504123886
-0.01863375278
-0.005474975781
-0.02151148027
-0.00225072802
-0.01952248456
-0.00925372498
-0.0005159299735
0.003980384331
-0.001240725199
0.008542798258
-0.001789553091
0.01075633721
-0.00204931869
0.01151064809
-0.002046242417
0.01145072193
-0.00185280494
0.01094708782
-0.00155127998
0.01017913641
-0.00122402657
0.009208559989
-0.0009522086939
0.008027003279
-0.0008160881981
0.006584662818
-0.0008940302881
0.004805989178
-0.001258071255
0.002597317406
-0.001962226044
-0.0001495345958
-0.003015263752
-0.003552470222
-0.004323884262
-0.007717860366
-0.005592658134
-0.01265671476
-0.006212646135
-0.01801376587
-0.005333168183
-0.02239095181
-0.002598303674
-0.02225734662
-0.01185202943
-0.0008209272562
0.004801311734
-0.001704036675
0.009425907626
-0.00208255031
0.01113485146
-0.001922555894
0.01135065148
-0.001363057786
0.01089122171
-0.0005532735851
0.01013730397
0.0003798721089
0.009245991989
0.001328429574
0.008260003863
0.002194932907
0.007160499151
0.00288507454
0.005894519703
0.003302726729
0.004388337851
0.003348044398
0.002551998944
0.002920461391
0.0002780404354
0.001933817097
-0.002565820805
0.0003613353746
-0.006145367771
-0.001650166354
-0.01064520675
-0.003566193056
-0.0160977427
-0.004291924701
-0.02166522707
-0.002699309037
-0.02384995554
-0.014551338
-0.001354505418
0.006155816496
-0.00243732851
0.01050872816
-0.002420865436
0.01111839036
-0.001549300015
0.01047908267
-0.0001763096066
0.009518226584
0.001448619461
0.008512372945
0.003157298252
0.007537318582
0.004826792686
0.006590516542
0.006355877062
0.005631418957
0.007648918023
0.004601482103
0.00860501776
0.003432242393
0.009110833872
0.002046185779
0.009036153256
0.0003527209256
0.008236332251
-0.001765999363
0.006571780795
-0.004480821436
0.003993933202
-0.008067356655
0.0008001598835
-0.01290396533
-0.001912077104
-0.0189529893
-0.002266185027
-0.02349585276
-0.01681752521
-0.002136190809
0.008292006455
-0.002929213271
0.0113017431
-0.00170540789
0.009894582899
0.0005026846776
0.00827099022
0.003068748184
0.006952161557
0.005703895244
0.005877226144
0.008256324319
0.004984893036
0.01063025345
0.004216589635
0.01275182468
0.003509848593
0.01454760326
0.002805708932
0.01593154967
0.002048302145
0.01679622323
0.001181511311
0.01700385807
0.0001450907843
0.01638151718
-0.001143658655
0.0147125685
-0.00281188161
0.01176159816
-0.005116392373
0.007438039372
-0.008580408212
0.002430371489
-0.0139453236
-0.0008916626971
-0.02017381819
-0.01770918555
-0.002484991142
0.01077699681
-1.012950396e-05
0.008826872204
0.004175969599
0.005708475921
0.008318206012
0.004128753526
0.01210256237
0.003167807836
0.01549941685
0.002480375949
0.01851100426
0.001973311554
0.02114414305
0.001583457005
0.02339623283
0.001257762524
0.02524532109
0.0009566230638
0.02664461349
0.0006490098439
0.02751600573
0.0003101168503
0.02774514367
-8.403752427e-05
0.02717132032
-0.0005698334513
0.02555581375
-0.001196363853
0.02253655639
-0.002097138087
0.01761091881
-0.003654772287
0.01039550818
-0.006729919448
0.002471427399
-0.01224973139
-0.01523776011
0.0107769965
0.01960386882
0.02531234389
0.02944109596
0.03260890406
0.03508928284
0.03706259746
0.03864605454
0.0399038173
0.04086044419
0.04150945451
0.04181956659
0.04173553251
0.04116569071
0.03996932825
0.03787218636
0.03421741517
0.02748749454
0.01523776042
)
;

boundaryField
{
    movingWall
    {
        type            calculated;
        value           uniform 0;
    }
    fixedWalls
    {
        type            calculated;
        value           uniform 0;
    }
    frontAndBack
    {
        type            empty;
    }
}


// ************************************************************************* //
