/*--------------------------------*- C++ -*----------------------------------*\
  =========                 |
  \\      /  F ield         | OpenFOAM: The Open Source CFD Toolbox
   \\    /   O peration     | Website:  https://openfoam.org
    \\  /    A nd           | Version:  13
     \\/     M anipulation  |
\*---------------------------------------------------------------------------*/
FoamFile
{
    format      ascii;
    class       volVectorField;
    location    "30";
    object      U_0;
}
// * * * * * * * * * * * * * * * * * * * * * * * * * * * * * * * * * * * * * //

dimensions      [0 1 -1 0 0 0 0];

internalField   nonuniform List<vector> 
400
(
(1.095695786e-05 -3.786452408e-05 0)
(-0.000666145893 0.0004130353506 -1.548147583e-23)
(-0.002185381469 0.0009203889237 0)
(-0.004047820517 0.001312773125 0)
(-0.005971839759 0.001535055725 6.840963723e-25)
(-0.007762743398 0.001569837477 4.151950984e-24)
(-0.00928449848 0.001423555774 -7.359402017e-24)
(-0.01043589038 0.001119719784 7.54510753e-24)
(-0.01113676058 0.0006960830002 -2.096555722e-25)
(-0.01132705725 0.0002030800684 -3.996391855e-24)
(-0.01097172219 -0.0003002306374 5.805485379e-24)
(-0.01007228634 -0.0007475135573 -5.931056815e-23)
(-0.008679851086 -0.001075559795 -6.55419563e-23)
(-0.006902837615 -0.001233041333 -7.785854038e-23)
(-0.004910734449 -0.001192636034 4.574548869e-24)
(-0.0029272363 -0.0009619197499 -4.138921017e-24)
(-0.001205307607 -0.00059121361 -1.999401547e-22)
(-1.907691643e-05 -0.0001698869887 0)
(0.0005181483235 0.0001720807235 1.51221447e-25)
(0.0002227502525 0.0003059756872 -2.586562748e-24)
(-0.0002633850856 0.0008289193728 1.385485052e-25)
(-0.002703316807 0.003383802535 1.557889722e-23)
(-0.006907253732 0.005604456431 1.55042818e-25)
(-0.01195225971 0.007008158905 -8.485801668e-25)
(-0.01713494593 0.007553725852 1.160720611e-24)
(-0.02197522197 0.007294152292 1.305400591e-23)
(-0.02611060369 0.006321855702 1.403264872e-24)
(-0.02926547675 0.004754169088 -7.296461528e-24)
(-0.03122655666 0.002737144713 1.01597285e-23)
(-0.03184184192 0.0004524143674 4.51200926e-24)
(-0.03102745968 -0.001884123412 -6.320917466e-24)
(-0.02879303255 -0.004022999866 2.961540146e-24)
(-0.02527127769 -0.005708320868 3.896315041e-23)
(-0.02073187478 -0.006707376394 -1.955259139e-24)
(-0.01558958378 -0.006854112401 3.755477244e-24)
(-0.01038511747 -0.006097446641 -9.744401354e-23)
(-0.005730272754 -0.00454618177 9.641065616e-23)
(-0.002233374499 -0.00250742611 -3.96656833e-25)
(-0.0001817815798 -0.0005023861176 4.066605907e-25)
(8.343550965e-05 0.0006099148377 0)
(-0.000418826212 0.002935046059 -2.912892407e-25)
(-0.004647858618 0.008803941933 1.705336897e-23)
(-0.01137189744 0.01324032385 -8.252880944e-24)
(-0.01932717417 0.01579193045 -2.070614422e-25)
(-0.0274739452 0.01652989139 2.034162482e-25)
(-0.03511756599 0.0156443185 7.297571008e-27)
(-0.04171318508 0.01335989658 -1.235284713e-24)
(-0.04683542756 0.009919718501 -4.560897251e-25)
(-0.05014959019 0.005602414097 -1.063827982e-23)
(-0.05141202656 0.0007444371341 0)
(-0.05047766138 -0.004241732209 0)
(-0.04733682558 -0.008887114835 2.671805727e-23)
(-0.04215908414 -0.01268168404 2.813777416e-23)
(-0.03531422605 -0.01513596499 -1.646668904e-24)
(-0.0273898612 -0.01586181872 4.847581041e-23)
(-0.01916999928 -0.01467328417 9.422602617e-23)
(-0.01156087971 -0.01169357172 3.9791521e-23)
(-0.005465403469 -0.007450736897 4.152912781e-25)
(-0.001451099389 -0.002936056208 1.06812447e-25)
(-9.072568003e-05 0.0002258613006 0)
(-0.0005024627064 0.006045301992 -4.252009469e-23)
(-0.006402703125 0.01637063145 -1.695556594e-23)
(-0.01553492354 0.02355916125 8.179753327e-24)
(-0.02627894662 0.02744143105 0)
(-0.03728722201 0.02832083161 0)
(-0.04769006541 0.02658755958 0)
(-0.05679626901 0.02263107559 -4.51530832e-26)
(-0.06405344267 0.01683601241 -2.128501656e-24)
(-0.06901039981 0.009622156615 0)
(-0.07130786731 0.001491078463 1.637360781e-24)
(-0.07070814741 -0.006936424272 2.803956558e-25)
(-0.06713004648 -0.01493006694 -2.811807571e-25)
(-0.06069876131 -0.02166713296 0)
(-0.0518072707 -0.0263159001 4.134904362e-23)
(-0.04114974384 -0.02816056159 -4.683243433e-23)
(-0.02971958714 -0.02677360267 -2.763739101e-23)
(-0.01873710037 -0.02221522526 -3.964351294e-23)
(-0.009487997423 -0.01521918581 7.795934723e-25)
(-0.002976871227 -0.00729819524 9.786684793e-23)
(-0.000231877626 -0.0008661827827 0)
(-0.0005316110004 0.01009494188 4.27268964e-23)
(-0.007983541622 0.02595200775 4.780259714e-25)
(-0.01939674571 0.03642856811 -4.671080144e-25)
(-0.03282360601 0.04185491637 0)
(-0.04664658423 0.04289456785 7.778049304e-25)
(-0.05985191394 0.04020049216 -7.670203823e-25)
(-0.07163246923 0.03434722671 3.670759321e-23)
(-0.08132702386 0.02585652299 1.846602844e-23)
(-0.08836549796 0.01527294451 6.23458958e-24)
(-0.09225418043 0.003246187587 -1.639268328e-24)
(-0.09260330293 -0.009407717453 0)
(-0.08917510066 -0.02167460306 4.373084525e-25)
(-0.08195939573 -0.0323672297 1.009843695e-23)
(-0.07126852713 -0.04021226051 -4.351040175e-23)
(-0.05781993606 -0.04402022915 1.933959783e-24)
(-0.0427856519 -0.0429480921 4.220776965e-23)
(-0.02775439264 -0.0368333213 -3.847378618e-25)
(-0.01455056646 -0.02652712565 0)
(-0.004859443443 -0.01408451959 5.436501906e-23)
(-0.0003641455552 -0.00284696101 -2.56469643e-22)
(-0.0005272178328 0.0149991685 9.838232927e-23)
(-0.009377864811 0.03738995832 -4.905248156e-25)
(-0.02288168173 0.05170187295 0)
(-0.03883019055 0.05894143744 0)
(-0.05538622562 0.06025536239 -8.730507396e-23)
(-0.07142833746 0.05661867449 -8.497518794e-23)
(-0.0860660413 0.0488014281 -4.06586389e-23)
(-0.09855030825 0.03743964136 -1.503594604e-23)
(-0.1081939489 0.02315978149 -5.365124295e-24)
(-0.1143438822 0.006709727804 -8.172890622e-24)
(-0.1164040443 -0.01093277313 6.598889507e-24)
(-0.1138931996 -0.0284892169 8.822619552e-24)
(-0.1065482135 -0.04437016575 -1.89229248e-23)
(-0.09446762839 -0.05675300594 4.590566428e-24)
(-0.0782682403 -0.06378265337 0)
(-0.05922871348 -0.06393465436 -1.57469837e-23)
(-0.03933966267 -0.05653792756 -2.372329067e-26)
(-0.02114180466 -0.04235794054 0)
(-0.007318673362 -0.02398222898 -1.520270346e-22)
(-0.0005216131214 -0.005925540244 6.055497996e-22)
(-0.000499078803 0.02064560105 -9.771216064e-23)
(-0.01052944693 0.05045403523 2.831645341e-22)
(-0.02582942471 0.06912465667 1.526695361e-22)
(-0.04402113357 0.07849207746 3.618771298e-24)
(-0.06310704285 0.08029427893 -7.319266057e-23)
(-0.08190361122 0.07588000493 9.041871867e-23)
(-0.09947712125 0.06621657692 -3.589701987e-24)
(-0.1150221649 0.0520167375 -1.728905798e-24)
(-0.1277513086 0.03392350114 2.523764505e-24)
(-0.1368466357 0.01270238008 7.380656153e-24)
(-0.1414704345 -0.01058764993 -6.498762845e-24)
(-0.1408242288 -0.03445996112 -9.783640708e-24)
(-0.1342740565 -0.05692734922 -3.261772148e-23)
(-0.1215445516 -0.07553274079 -3.658785548e-23)
(-0.1029668769 -0.08754216934 5.640470163e-25)
(-0.07976340423 -0.09039168859 0)
(-0.05426662666 -0.08244479998 0)
(-0.02987150014 -0.06397713452 -2.905473928e-24)
(-0.01066281152 -0.03798782838 2.969910056e-24)
(-0.0007350897539 -0.010500872 1.027866e-22)
(-0.0004479147946 0.02687233457 0)
(-0.0113491761 0.06480715374 2.001963581e-22)
(-0.02801585964 0.08829561447 8.962042181e-23)
(-0.04799834338 0.1001228893 0)
(-0.06920569699 0.1027070724 1.569720123e-22)
(-0.09044332352 0.09781527783 0)
(-0.1107826869 0.08661063362 -1.428295409e-22)
(-0.1294088386 0.06983924299 6.51502008e-24)
(-0.1454765873 0.04808221083 0)
(-0.1580345853 0.02201759711 0)
(-0.1660127489 -0.007334252259 -1.374269802e-24)
(-0.1682665773 -0.03838807878 -9.315374117e-25)
(-0.163705928 -0.06883933318 1.491795824e-22)
(-0.1515203894 -0.09558225806 -4.704637197e-23)
(-0.1315130414 -0.1148293336 -2.560404726e-24)
(-0.1045592814 -0.1225698252 1.534158815e-24)
(-0.07309327059 -0.1155513499 -1.558359068e-24)
(-0.04135008384 -0.09283082604 0)
(-0.01525225266 -0.05740749182 3.203503921e-24)
(-0.001044304448 -0.01714709807 -1.012834396e-21)
(-0.0003744674119 0.03346284127 0)
(-0.01175001946 0.07998870454 -1.128123596e-22)
(-0.02920697253 0.1086384557 -6.190803528e-22)
(-0.05031726624 0.1232227066 -3.755131655e-22)
(-0.07296291246 0.1269090369 0)
(-0.09598926821 0.1219249829 4.119272104e-22)
(-0.1185269537 0.1096344098 1.260842913e-22)
(-0.1398141998 0.0907821567 -5.58154227e-24)
(-0.1590216798 0.06581379526 5.553916635e-24)
(-0.1751456063 0.03520884259 0)
(-0.1869554991 -0.0001965544555 2.912004612e-23)
(-0.1930167734 -0.03889720446 4.695537204e-24)
(-0.1917805209 -0.07843842321 -1.076712403e-22)
(-0.1817870077 -0.1151859835 8.003281801e-23)
(-0.1620566573 -0.1442593399 -2.419550445e-22)
(-0.1327058807 -0.1598542544 0)
(-0.09577864539 -0.1563107381 0)
(-0.05601618696 -0.1302976789 0)
(-0.02147853286 -0.08381109207 0)
(-0.001500379119 -0.02665508713 5.571717275e-22)
(-0.0002873931814 0.04016055524 0)
(-0.01169357595 0.09543559061 -3.492842932e-22)
(-0.02924432187 0.129406668 8.932440448e-22)
(-0.05060935945 0.1469291627 3.617009575e-22)
(-0.07370065847 0.1519741415 0)
(-0.0974512932 0.1472751637 -3.862381239e-22)
(-0.1211067244 0.1344187005 -3.174312183e-23)
(-0.1440321889 0.1141390022 3.333002387e-22)
(-0.1655140141 0.08669991346 1.769421758e-22)
(-0.1846245319 0.05229125932 -4.060035799e-23)
(-0.2001322569 0.01141735422 1.656813531e-23)
(-0.2104619212 -0.03471389763 -8.264923482e-24)
(-0.2137205345 -0.0837651626 3.371748264e-22)
(-0.2078212408 -0.1318750588 0)
(-0.1908235617 -0.1732749693 2.420719376e-22)
(-0.161633313 -0.2002586717 5.774163815e-24)
(-0.1211660589 -0.2040115398 -5.860273677e-24)
(-0.0738497583 -0.1772114757 1.548242605e-22)
(-0.02971780571 -0.1188638974 -5.434832138e-24)
(-0.002179538862 -0.0400538785 0)
(-0.000211724887 0.04671617295 0)
(-0.01125001514 0.1105492719 0)
(-0.02815623966 0.1497347805 -5.022580074e-22)
(-0.04874476852 0.1701509771 -1.880940234e-23)
(-0.07100081823 0.1766249611 2.038318794e-23)
(-0.09399444522 0.1724519965 -2.014251999e-23)
(-0.1171433449 0.15948659 -2.31682049e-23)
(-0.1400178578 0.1384801721 -3.029729961e-22)
(-0.1621327957 0.1095159179 6.698593378e-23)
(-0.1827958133 0.07245189494 4.5130456e-23)
(-0.2009834681 0.02734947925 -4.577586364e-23)
(-0.2152269378 -0.02508664055 0)
(-0.223556125 -0.08298305339 -7.839170999e-23)
(-0.2234631083 -0.1427251726 0)
(-0.2120678133 -0.1981814527 -3.739448564e-22)
(-0.1867433114 -0.2400766928 5.244738341e-22)
(-0.1464436899 -0.2560766739 0)
(-0.09394556622 -0.2331203687 -1.493795011e-22)
(-0.04021995136 -0.1639609644 1.93734471e-22)
(-0.003201093557 -0.05861048855 -3.411324942e-22)
(-0.0002015474955 0.05297563453 0)
(-0.01067264941 0.1248167125 9.182667135e-22)
(-0.02628452291 0.1687417495 -2.44062573e-23)
(-0.04501115181 0.1916447387 9.193139423e-22)
(-0.06494606051 0.1992913594 -2.512026607e-23)
(-0.08536638148 0.1956097874 2.838781196e-23)
(-0.105930674 0.1827881898 -2.812867831e-23)
(-0.1264925447 0.1616580323 -1.660884526e-23)
(-0.1468998296 0.1321760939 -5.260126251e-22)
(-0.1668459781 0.09389650406 -8.906456884e-24)
(-0.185730476 0.04640595506 9.660019232e-24)
(-0.2024783434 -0.01023752619 3.313026606e-22)
(-0.2154156214 -0.07499777643 -5.82063206e-22)
(-0.2220210978 -0.1450306726 0)
(-0.2188032874 -0.214675483 8.887108888e-22)
(-0.2016257727 -0.2740010143 -4.940684011e-22)
(-0.1668638899 -0.3075805511 -1.572157389e-23)
(-0.1140219554 -0.295380595 0)
(-0.05288477716 -0.2195798141 -1.889981857e-22)
(-0.004749181771 -0.0837726066 3.360386256e-22)
(-0.0003642066057 0.05902298688 1.550979275e-23)
(-0.01049579577 0.1379876697 -8.764004213e-22)
(-0.02441401146 0.1856797507 -1.157038305e-21)
(-0.04026741536 0.2101377461 -8.628800511e-22)
(-0.05630751452 0.2182341884 0)
(-0.07214882578 0.2146184241 3.513741527e-23)
(-0.08779251512 0.2018787414 -7.294737848e-23)
(-0.1034566146 0.1810002808 5.867785902e-23)
(-0.1193987561 0.1518996211 3.021314081e-22)
(-0.1357935502 0.1139151175 -1.128178565e-23)
(-0.1526086441 0.06621444821 0)
(-0.1694525497 0.008177509242 -3.603873316e-22)
(-0.1852764521 -0.06015949172 7.515565058e-22)
(-0.1980452018 -0.1372742586 8.831591015e-22)
(-0.2043549096 -0.2189256999 -5.296519728e-22)
(-0.1990979581 -0.2959707604 5.162587989e-22)
(-0.1760606375 -0.3514066965 1.078170115e-23)
(-0.1300890895 -0.3584145262 -1.095484146e-23)
(-0.06688801869 -0.284327204 -8.217285479e-23)
(-0.00708331516 -0.1169962492 0)
(-0.000909586719 0.06540026311 -1.911455536e-23)
(-0.01167599537 0.1502812351 -1.326945944e-21)
(-0.0238889891 0.200065381 1.094217932e-21)
(-0.03601366145 0.22442105 6.73482644e-22)
(-0.04657342395 0.2316581971 6.014539851e-22)
(-0.05577078987 0.2272388341 6.643857378e-22)
(-0.06411291962 0.214177092 -4.458612363e-23)
(-0.07227612597 0.1936492075 -3.461291543e-22)
(-0.08097027585 0.1656027666 2.152135853e-22)
(-0.09087249369 0.1292708199 0)
(-0.1025553263 0.08353102972 0)
(-0.116362791 0.0272003981 2.655370539e-22)
(-0.1321595071 -0.04061971727 8.194356368e-23)
(-0.1489257372 -0.1200124606 -2.821573232e-22)
(-0.1641288629 -0.2089296813 -5.411207409e-23)
(-0.1727881012 -0.3006988418 1.301952638e-22)
(-0.1670313572 -0.3793324713 -3.400404492e-22)
(-0.136529356 -0.4136447425 -1.59478392e-23)
(-0.08018252531 -0.3538322167 8.206055467e-23)
(-0.01050762155 -0.1594128617 -6.032342824e-22)
(-0.002260507707 0.0734887305 0)
(-0.01580364938 0.1626518677 2.145844801e-21)
(-0.02665063193 0.2117900122 0)
(-0.03422371786 0.2333941925 -1.351788617e-21)
(-0.03759441138 0.2377761562 6.184078074e-23)
(-0.03799736703 0.2312549014 -6.19300123e-22)
(-0.03668324098 0.217189571 -4.756221696e-22)
(-0.03489099415 0.1968932687 8.30114871e-22)
(-0.03378904034 0.1703342039 -1.88567467e-22)
(-0.03449943619 0.1367222046 0)
(-0.03811639332 0.09479693639 0)
(-0.0456505698 0.04304313399 2.410630013e-23)
(-0.05790865508 -0.0201375106 -6.007140939e-22)
(-0.0751465495 -0.09620619686 -4.309523172e-22)
(-0.09645224808 -0.185555321 4.637818193e-22)
(-0.118346672 -0.285356486 -6.488634349e-22)
(-0.1332718416 -0.3838383484 9.119804321e-23)
(-0.1265352777 -0.4504355487 2.938324449e-23)
(-0.08899160258 -0.4198533196 5.660526231e-22)
(-0.01526918281 -0.2111717969 6.020975221e-22)
(-0.005180907651 0.08598040695 0)
(-0.02525560242 0.1766289185 1.465581859e-22)
(-0.03483429885 0.2205958256 -4.917084668e-23)
(-0.03640048832 0.2354855322 7.642828697e-22)
(-0.0301853002 0.2343402668 -7.005281652e-22)
(-0.01916636442 0.2241600326 4.746419539e-23)
(-0.005615787778 0.2083523237 -1.018599367e-22)
(0.008568925715 0.1881239662 -3.38984693e-22)
(0.02179815692 0.163391106 2.062800719e-22)
(0.03262711745 0.1333243621 0)
(0.03958391404 0.09664103639 0)
(0.04116950153 0.05174079304 -2.902642516e-22)
(0.03578425276 -0.003255149165 0)
(0.02198131419 -0.07058336365 -5.512144067e-22)
(-0.001265316731 -0.1525733286 -1.492338899e-23)
(-0.03310509509 -0.250594787 2.559689678e-23)
(-0.06909267479 -0.3599339604 2.203056202e-22)
(-0.09227847733 -0.4575422658 4.788607842e-24)
(-0.0871809835 -0.4698127321 -5.789500337e-22)
(-0.02103128028 -0.2698970931 0)
(-0.0111163201 0.1085974925 0)
(-0.04248909673 0.1947150722 -8.848388422e-22)
(-0.04795548096 0.2258193543 -5.410989157e-22)
(-0.03919567786 0.2282132896 4.54376749e-22)
(-0.01877874244 0.2182325282 -1.709994194e-24)
(0.007663772067 0.2028217769 -4.56099321e-23)
(0.03667932017 0.1847617824 5.696610549e-22)
(0.06582932972 0.1647117073 -2.766859664e-23)
(0.09327063952 0.1423127956 -2.069759467e-22)
(0.1173885072 0.1166275565 3.142182939e-23)
(0.1365455517 0.08641156953 -3.425887101e-23)
(0.14896636 0.05017686522 -3.69056547e-23)
(0.1525270726 0.006159360307 3.205608829e-22)
(0.1449362625 -0.04796108435 6.119558154e-22)
(0.1235155987 -0.1153051315 -5.101125741e-22)
(0.08633502059 -0.2004194394 -1.616021627e-22)
(0.03199061859 -0.3067805617 1.531343135e-22)
(-0.02362142766 -0.4239836161 7.293701205e-23)
(-0.06492421029 -0.4871611669 1.913298424e-21)
(-0.02509972799 -0.3291543869 2.954999169e-21)
(-0.02004680247 0.1460727653 -4.390179165e-23)
(-0.0641640985 0.2112955687 4.417351738e-23)
(-0.05070241932 0.2177299626 1.000179878e-21)
(-0.01934118614 0.201467855 -8.270286163e-24)
(0.02414433121 0.1809074471 0)
(0.07154080539 0.1606931692 4.363667234e-23)
(0.1190698514 0.1416494167 -2.273823496e-22)
(0.1644761972 0.1233180986 -9.027843411e-23)
(0.206224562 0.1048117044 3.680690953e-23)
(0.2429637595 0.08507143249 -1.701639353e-23)
(0.2732202501 0.06296155535 3.429940373e-23)
(0.2952531576 0.0372630483 -6.592624836e-23)
(0.306696711 0.006535191797 -9.303845642e-23)
(0.3049734979 -0.03087758114 1.517029383e-22)
(0.2863933534 -0.0778628105 0)
(0.2470565919 -0.1399299682 1.505570266e-22)
(0.1810920481 -0.2266299439 2.560017678e-22)
(0.09604437134 -0.344389456 0)
(-0.006697682888 -0.4552209803 -3.675645953e-21)
(-0.01922409295 -0.3777537204 -2.892628386e-21)
(-0.02591950591 0.2276829063 -9.514185175e-22)
(-0.03998323322 0.2238216716 -1.388968372e-22)
(0.03656135601 0.1810585204 -2.335560205e-22)
(0.109050234 0.1451058589 -1.193730849e-22)
(0.1817189738 0.1172444767 -4.295777364e-23)
(0.249008848 0.09627899896 9.783030378e-23)
(0.3100333752 0.08002503794 -1.408571227e-22)
(0.3646205876 0.06656810892 1.297158583e-22)
(0.4126248772 0.05449177247 -8.620019322e-23)
(0.4536246572 0.04270896118 1.132188281e-25)
(0.4867875222 0.03032302003 1.527727589e-23)
(0.5107448269 0.01652907059 7.997135139e-23)
(0.5236594899 0.0005365697198 -1.811108117e-22)
(0.523179606 -0.01863367858 -1.617131502e-22)
(0.5052321982 -0.04286474599 -4.262860517e-23)
(0.4658714067 -0.07633228444 0)
(0.3952695762 -0.1286089298 -1.846499006e-22)
(0.2916070493 -0.2208468073 8.148785104e-22)
(0.119745477 -0.3525016878 1.631605131e-21)
(0.02670546414 -0.3775497928 2.172657664e-21)
(0.2142894554 0.1347447286 9.864967941e-22)
(0.277631145 0.09870504652 0)
(0.4316592583 0.05810415348 -2.594301121e-22)
(0.5304749467 0.03846264842 -1.741647651e-22)
(0.6016965534 0.02623418516 0)
(0.6571198325 0.01831922693 -6.008994872e-23)
(0.7015212574 0.01313600172 6.377899548e-23)
(0.7376041174 0.009542122689 -1.800129519e-23)
(0.7669366934 0.006804464229 2.885933339e-23)
(0.7902105204 0.004464748816 2.315005165e-23)
(0.8074553673 0.002221328192 0)
(0.8182620267 -0.0001500645158 -2.873005621e-23)
(0.8216498938 -0.002723837301 0)
(0.8162393743 -0.005712660368 2.738103392e-23)
(0.7991332952 -0.009611377947 1.421647916e-23)
(0.7679986321 -0.01500254975 -5.799446694e-23)
(0.7106555798 -0.02502520173 -2.535673579e-22)
(0.6235184007 -0.04204285666 -6.918118706e-22)
(0.4230091016 -0.09182968348 0)
(0.2705674681 -0.1524021853 -2.119485486e-21)
)
;

boundaryField
{
    movingWall
    {
        type            calculated;
        value           uniform (1 0 0);
    }
    fixedWalls
    {
        type            calculated;
        value           uniform (0 0 0);
    }
    frontAndBack
    {
        type            empty;
    }
}


// ************************************************************************* //
