/*--------------------------------*- C++ -*----------------------------------*\
  =========                 |
  \\      /  F ield         | OpenFOAM: The Open Source CFD Toolbox
   \\    /   O peration     | Website:  https://openfoam.org
    \\  /    A nd           | Version:  13
     \\/     M anipulation  |
\*---------------------------------------------------------------------------*/
FoamFile
{
    format      ascii;
    class       vectorField;
    location    "30";
    object      U_all;
}
// * * * * * * * * * * * * * * * * * * * * * * * * * * * * * * * * * * * * * //


400
(
(1.095710004e-05 -3.786444026e-05 0)
(-0.0006661455282 0.0004130350967 -1.548151757e-23)
(-0.002185381064 0.0009203883893 0)
(-0.004047821033 0.00131277324 0)
(-0.005971841404 0.001535057101 6.84083624e-25)
(-0.007762744495 0.001569839199 4.151345258e-24)
(-0.009284497493 0.001423556074 -7.358551712e-24)
(-0.01043588775 0.001119717801 7.545794895e-24)
(-0.01113675849 0.0006960797299 -2.09643478e-25)
(-0.01132705756 0.0002030775036 -3.996299863e-24)
(-0.0109717247 -0.0003002312487 5.805359951e-24)
(-0.01007228924 -0.0007475124321 -5.931018709e-23)
(-0.008679852679 -0.001075558121 -6.554197667e-23)
(-0.006902837418 -0.001233040264 -7.78593649e-23)
(-0.00491073336 -0.001192635888 4.574574988e-24)
(-0.002927235691 -0.0009619200181 -4.138930223e-24)
(-0.001205308141 -0.00059121363 -1.999405727e-22)
(-1.907825637e-05 -0.0001698865724 0)
(0.0005181469009 0.0001720813597 1.512449983e-25)
(0.000222749717 0.0003059758718 -2.589969093e-24)
(-0.0002633852219 0.0008289197627 1.385481613e-25)
(-0.002703317102 0.003383802759 1.557894449e-23)
(-0.006907253231 0.005604455501 1.550398706e-25)
(-0.01195225866 0.007008157663 -8.486292834e-25)
(-0.01713494624 0.007553726258 1.160792871e-24)
(-0.02197522447 0.007294154848 1.305383219e-23)
(-0.026110607 0.006321858586 1.402949718e-24)
(-0.02926547848 0.004754169814 -7.297124888e-24)
(-0.03122655578 0.002737142517 1.016008225e-23)
(-0.03184183978 0.0004524109028 4.511906148e-24)
(-0.03102745841 -0.001884125963 -6.320779625e-24)
(-0.02879303313 -0.004023000309 2.961469317e-24)
(-0.02527127964 -0.005708319569 3.896342266e-23)
(-0.02073187669 -0.006707374626 -1.955261944e-24)
(-0.01558958461 -0.00685411116 3.755486952e-24)
(-0.01038511736 -0.006097445961 -9.744338678e-23)
(-0.005730272695 -0.004546181083 9.641087795e-23)
(-0.002233375172 -0.002507425148 -3.966737997e-25)
(-0.000181783284 -0.0005023851443 4.066780256e-25)
(8.343432674e-05 0.0006099155433 0)
(-0.0004188263344 0.0029350462 -2.912851985e-25)
(-0.004647859494 0.008803943338 1.70523995e-23)
(-0.01137189868 0.01324032485 -8.252716645e-24)
(-0.01932717414 0.01579192957 -2.070538312e-25)
(-0.0274739442 0.01652988936 2.034087828e-25)
(-0.03511756562 0.01564431753 7.263113569e-27)
(-0.04171318666 0.01335989814 -1.235022894e-24)
(-0.04683543074 0.009919721734 -4.560339709e-25)
(-0.0501495932 0.005602416606 -1.063866043e-23)
(-0.05141202817 0.0007444372079 0)
(-0.05047766155 -0.004241734154 0)
(-0.04733682498 -0.00888711738 2.671782728e-23)
(-0.04215908378 -0.01268168566 2.813751201e-23)
(-0.03531422639 -0.01513596504 -1.646644622e-24)
(-0.02738986196 -0.01586181765 4.847479695e-23)
(-0.01917 -0.01467328282 9.422538762e-23)
(-0.01156088049 -0.01169357058 3.978944906e-23)
(-0.005465404741 -0.007450736066 4.152745495e-25)
(-0.001451101101 -0.002936055705 1.068119731e-25)
(-9.072681423e-05 0.0002258622587 0)
(-0.0005024622183 0.006045301175 -4.252038764e-23)
(-0.006402702962 0.01637063202 -1.695457273e-23)
(-0.01553492524 0.02355916361 8.179567577e-24)
(-0.02627894873 0.02744143334 0)
(-0.03728722317 0.02832083211 0)
(-0.04769006545 0.02658755826 0)
(-0.05679626908 0.02263107397 -4.513305965e-26)
(-0.06405344411 0.01683601208 -2.128789511e-24)
(-0.0690104028 0.009622157693 0)
(-0.07130787059 0.001491079667 1.63734765e-24)
(-0.07070814978 -0.006936423968 2.804005029e-25)
(-0.06713004748 -0.01493006799 -2.811856189e-25)
(-0.06069876109 -0.02166713485 0)
(-0.05180727008 -0.02631590186 4.134876993e-23)
(-0.04114974357 -0.02816056259 -4.683144493e-23)
(-0.02971958749 -0.02677360293 -2.763599222e-23)
(-0.01873710133 -0.02221522517 -3.964143525e-23)
(-0.009487998975 -0.01521918562 7.795718428e-25)
(-0.002976872879 -0.007298194912 9.786705963e-23)
(-0.0002318785524 -0.0008661819024 0)
(-0.0005316102864 0.0100949416 4.272718177e-23)
(-0.007983540602 0.02595200684 4.780425091e-25)
(-0.01939674595 0.0364285687 -4.671241399e-25)
(-0.03282360787 0.0418549187 0)
(-0.04664658677 0.04289457072 7.777955033e-25)
(-0.059851916 0.04020049398 -7.67011097e-25)
(-0.07163247044 0.03434722688 3.670743166e-23)
(-0.08132702494 0.02585652221 1.846634289e-23)
(-0.08836549988 0.01527294391 6.234678002e-24)
(-0.09225418329 0.003246187609 -1.639255181e-24)
(-0.09260330606 -0.009407717337 0)
(-0.08917510317 -0.02167460347 4.373159152e-25)
(-0.08195939696 -0.03236723105 1.009868191e-23)
(-0.07126852715 -0.04021226262 -4.351012261e-23)
(-0.05781993561 -0.04402023142 1.933916646e-24)
(-0.04278565175 -0.04294809398 4.220547247e-23)
(-0.02775439321 -0.03683332256 -3.846967828e-25)
(-0.01455056773 -0.02652712629 0)
(-0.004859444717 -0.01408451958 5.436528888e-23)
(-0.0003641461757 -0.002846960389 -2.564696138e-22)
(-0.0005272178188 0.01499917015 9.838254782e-23)
(-0.009377864874 0.0373899588 -4.905186473e-25)
(-0.02288168144 0.05170187281 0)
(-0.03883019114 0.058941438 0)
(-0.0553862274 0.06025536422 -8.730534753e-23)
(-0.07142833998 0.05661867702 -8.497548655e-23)
(-0.08606604382 0.04880143015 -4.065847843e-23)
(-0.09855031046 0.0374396422 -1.503600087e-23)
(-0.1081939511 0.02315978131 -5.365205972e-24)
(-0.1143438848 0.006709727169 -8.172909843e-24)
(-0.1164040473 -0.01093277391 6.598878453e-24)
(-0.1138932025 -0.02848921782 8.822530283e-24)
(-0.1065482158 -0.0443701671 -1.892290304e-23)
(-0.09446762955 -0.05675300796 4.590116276e-24)
(-0.07826824054 -0.06378265593 0)
(-0.05922871339 -0.06393465698 -1.574602849e-23)
(-0.03933966285 -0.0565379297 -2.374608824e-26)
(-0.02114180537 -0.04235794185 0)
(-0.0073186741 -0.02398222934 -1.520275263e-22)
(-0.0005216134373 -0.005925539992 6.055499863e-22)
(-0.0004990793893 0.02064560288 -9.771238475e-23)
(-0.01052944824 0.05045403792 2.831648365e-22)
(-0.02582942548 0.06912465845 1.526692219e-22)
(-0.04402113406 0.07849207847 3.618768405e-24)
(-0.06310704367 0.08029427993 -7.319225943e-23)
(-0.08190361282 0.07588000647 9.041903432e-23)
(-0.09947712359 0.06621657882 -3.589715684e-24)
(-0.1150221677 0.05201673912 -1.72891157e-24)
(-0.1277513115 0.03392350196 2.523772043e-24)
(-0.1368466387 0.01270238001 7.380673604e-24)
(-0.1414704376 -0.01058765069 -6.498753376e-24)
(-0.1408242318 -0.03445996232 -9.783542555e-24)
(-0.1342740591 -0.05692735077 -3.261775811e-23)
(-0.1215445535 -0.07553274277 -3.658709357e-23)
(-0.102966878 -0.08754217176 5.640326541e-25)
(-0.07976340462 -0.09039169121 0)
(-0.05426662682 -0.08244480236 0)
(-0.0298715004 -0.06397713618 -2.905481731e-24)
(-0.01066281179 -0.03798782909 2.969918049e-24)
(-0.0007350898423 -0.01050087208 1.027866176e-22)
(-0.0004479151463 0.02687233497 0)
(-0.01134917721 0.06480715643 2.001971171e-22)
(-0.02801586124 0.08829561778 8.962078105e-23)
(-0.04799834463 0.1001228921 0)
(-0.0692056979 0.1027070743 1.569718876e-22)
(-0.09044332452 0.09781527915 0)
(-0.1107826884 0.0866106348 -1.428296933e-22)
(-0.1294088408 0.06983924415 6.515037034e-24)
(-0.14547659 0.04808221174 0)
(-0.1580345884 0.02201759753 0)
(-0.1660127521 -0.007334252524 -1.374269256e-24)
(-0.1682665804 -0.03838807972 -9.315324472e-25)
(-0.1637059307 -0.06883933466 1.491791661e-22)
(-0.1515203917 -0.09558225995 -4.704645186e-23)
(-0.1315130429 -0.1148293358 -2.560388068e-24)
(-0.1045592824 -0.1225698275 1.534152517e-24)
(-0.07309327101 -0.1155513521 -1.558352662e-24)
(-0.04135008402 -0.09283082779 0)
(-0.01525225273 -0.05740749279 3.20350553e-24)
(-0.001044304429 -0.01714709836 -1.012834808e-21)
(-0.0003744672475 0.03346284127 0)
(-0.01175001965 0.07998870621 -1.128130103e-22)
(-0.02920697373 0.1086384589 -6.190806581e-22)
(-0.05031726774 0.1232227102 -3.755131109e-22)
(-0.07296291379 0.1269090401 0)
(-0.09598926926 0.121924985 4.119269366e-22)
(-0.1185269547 0.1096344111 1.260844291e-22)
(-0.1398142011 0.09078215746 -5.581551935e-24)
(-0.1590216815 0.06581379575 5.553926248e-24)
(-0.1751456087 0.03520884285 0)
(-0.1869555019 -0.0001965545717 2.912008615e-23)
(-0.1930167762 -0.03889720512 4.695537204e-24)
(-0.1917805235 -0.07843842447 -1.076710856e-22)
(-0.1817870098 -0.1151859852 8.003260129e-23)
(-0.162056659 -0.144259342 -2.419548962e-22)
(-0.1327058819 -0.1598542566 0)
(-0.09577864612 -0.1563107403 0)
(-0.05601618734 -0.1302976807 0)
(-0.02147853297 -0.08381109324 0)
(-0.001500379098 -0.02665508754 5.571719026e-22)
(-0.0002873929593 0.04016055611 0)
(-0.01169357578 0.09543559224 -3.492846881e-22)
(-0.0292443222 0.1294066708 8.932445018e-22)
(-0.0506093604 0.1469291663 3.617008978e-22)
(-0.07370065968 0.1519741451 0)
(-0.09745129427 0.1472751666 -3.862378591e-22)
(-0.1211067252 0.1344187023 -3.174311584e-23)
(-0.1440321895 0.1141390031 3.333002596e-22)
(-0.1655140147 0.08669991363 1.769422799e-22)
(-0.184624533 0.05229125909 -4.06003965e-23)
(-0.2001322585 0.01141735371 1.65681442e-23)
(-0.2104619231 -0.03471389848 -8.264930275e-24)
(-0.2137205364 -0.08376516389 3.371750547e-22)
(-0.2078212424 -0.1318750605 0)
(-0.1908235631 -0.1732749714 2.420717892e-22)
(-0.1616333141 -0.200258674 5.774165438e-24)
(-0.1211660597 -0.2040115422 -5.860275327e-24)
(-0.07384975886 -0.1772114777 1.548243876e-22)
(-0.02971780597 -0.1188638988 -5.434834663e-24)
(-0.002179538884 -0.04005387897 0)
(-0.0002117249461 0.04671617442 0)
(-0.01125001517 0.1105492742 0)
(-0.02815623951 0.1497347835 -5.022582077e-22)
(-0.04874476873 0.1701509806 -1.880940669e-23)
(-0.07100081884 0.1766249646 2.038318426e-23)
(-0.0939944459 0.1724519996 -2.014251635e-23)
(-0.1171433453 0.1594865921 -2.316819949e-23)
(-0.1400178578 0.1384801731 -3.029730278e-22)
(-0.1621327954 0.109515918 6.698584881e-23)
(-0.1827958131 0.07245189427 4.513049994e-23)
(-0.2009834682 0.02734947814 -4.577591267e-23)
(-0.2152269384 -0.02508664195 0)
(-0.2235561258 -0.08298305505 -7.839178801e-23)
(-0.2234631091 -0.1427251746 0)
(-0.212067814 -0.198181455 -3.739450419e-22)
(-0.1867433121 -0.2400766954 5.244741384e-22)
(-0.1464436906 -0.2560766765 0)
(-0.09394556679 -0.2331203711 -1.493796256e-22)
(-0.04021995168 -0.163960966 1.937345929e-22)
(-0.003201093611 -0.05861048909 -3.411325932e-22)
(-0.0002015476798 0.05297563562 0)
(-0.01067264949 0.1248167151 9.182669709e-22)
(-0.02628452258 0.1687417528 -2.440626374e-23)
(-0.04501115155 0.1916447423 9.193142413e-22)
(-0.06494606053 0.1992913628 -2.512027049e-23)
(-0.08536638159 0.1956097903 2.838780404e-23)
(-0.1059306739 0.1827881919 -2.812867047e-23)
(-0.126492544 0.1616580333 -1.660884182e-23)
(-0.1468998285 0.1321760939 -5.260125816e-22)
(-0.1668459768 0.0938965032 -8.906457287e-24)
(-0.1857304749 0.04640595359 9.660023308e-24)
(-0.2024783426 -0.01023752801 3.313027505e-22)
(-0.2154156208 -0.07499777846 -5.820634505e-22)
(-0.2220210975 -0.1450306748 0)
(-0.2188032872 -0.2146754854 8.887112407e-22)
(-0.2016257727 -0.2740010169 -4.940686872e-22)
(-0.1668638902 -0.3075805538 -1.572158338e-23)
(-0.1140219558 -0.2953805974 0)
(-0.05288477743 -0.2195798159 -1.889983059e-22)
(-0.004749181827 -0.08377260722 3.360387228e-22)
(-0.0003642066455 0.05902298725 1.550979738e-23)
(-0.01049579547 0.1379876718 -8.764006665e-22)
(-0.02441401083 0.1856797538 -1.1570387e-21)
(-0.04026741472 0.2101377496 -8.628803342e-22)
(-0.05630751408 0.2182341917 0)
(-0.07214882536 0.2146184269 3.513740791e-23)
(-0.08779251437 0.2018787435 -7.294735701e-23)
(-0.1034566133 0.1810002819 5.867783766e-23)
(-0.1193987542 0.1518996212 3.021313477e-22)
(-0.1357935481 0.1139151167 -1.128178336e-23)
(-0.1526086419 0.0662144468 0)
(-0.1694525477 0.008177507415 -3.603874346e-22)
(-0.1852764504 -0.06015949377 7.515566537e-22)
(-0.1980452003 -0.1372742608 8.831592216e-22)
(-0.2043549084 -0.2189257021 -5.29652148e-22)
(-0.1990979573 -0.2959707627 5.162589088e-22)
(-0.1760606371 -0.3514066988 1.07817077e-23)
(-0.1300890895 -0.3584145285 -1.095484813e-23)
(-0.0668880188 -0.2843272058 -8.217270894e-23)
(-0.007083315197 -0.1169962499 0)
(-0.0009095865775 0.06540026308 -1.911455612e-23)
(-0.01167599459 0.1502812365 -1.326945919e-21)
(-0.02388898796 0.2000653835 1.094218305e-21)
(-0.03601366033 0.224421053 6.734829673e-22)
(-0.04657342301 0.2316582002 6.014542603e-22)
(-0.05577078892 0.2272388368 6.643858822e-22)
(-0.0641129183 0.2141770942 -4.458611193e-23)
(-0.07227612405 0.1936492089 -3.461290846e-22)
(-0.08097027338 0.1656027671 2.152135385e-22)
(-0.09087249093 0.1292708196 0)
(-0.1025553235 0.08353102869 0)
(-0.1163627883 0.02720039662 2.655370496e-22)
(-0.1321595047 -0.04061971898 8.194352262e-23)
(-0.148925735 -0.1200124624 -2.821574126e-22)
(-0.164128861 -0.2089296832 -5.411207826e-23)
(-0.1727880997 -0.3006988436 1.301952188e-22)
(-0.1670313562 -0.3793324732 -3.40040521e-22)
(-0.1365293555 -0.4136447444 -1.594777165e-23)
(-0.08018252521 -0.3538322183 8.206040904e-23)
(-0.01050762156 -0.1594128624 -6.032341487e-22)
(-0.002260507505 0.07348873046 0)
(-0.01580364833 0.1626518687 2.145844647e-21)
(-0.0266506303 0.2117900139 0)
(-0.03422371617 0.2333941948 -1.351789255e-21)
(-0.03759440983 0.2377761588 6.184088562e-23)
(-0.03799736547 0.2312549039 -6.193002587e-22)
(-0.03668323912 0.2171895732 -4.756222608e-22)
(-0.03489099178 0.1968932703 8.301148112e-22)
(-0.03378903752 0.1703342047 -1.885674233e-22)
(-0.03449943316 0.1367222047 0)
(-0.0381163903 0.09479693579 0)
(-0.04565056693 0.04304313297 2.410630516e-23)
(-0.0579086524 -0.02013751185 -6.007141011e-22)
(-0.07514654703 -0.09620619818 -4.309523339e-22)
(-0.09645224587 -0.1855553223 4.637818271e-22)
(-0.1183466701 -0.2853564873 -6.488634972e-22)
(-0.1332718402 -0.3838383497 9.119807453e-23)
(-0.1265352769 -0.45043555 2.938317329e-23)
(-0.08899160229 -0.419853321 5.660525731e-22)
(-0.01526918279 -0.2111717976 6.020973887e-22)
(-0.00518090745 0.08598040711 0)
(-0.02525560135 0.1766289193 1.465581565e-22)
(-0.03483429705 0.2205958268 -4.917085998e-23)
(-0.03640048622 0.2354855337 7.642832138e-22)
(-0.0301852981 0.2343402685 -7.005285613e-22)
(-0.01916636232 0.2241600344 4.746421677e-23)
(-0.005615785515 0.2083523254 -1.018600558e-22)
(0.008568928285 0.1881239676 -3.389846947e-22)
(0.02179815977 0.1633911068 2.062801059e-22)
(0.03262712039 0.1333243622 0)
(0.03958391691 0.096641036 0)
(0.0411695042 0.05174079232 -2.902642523e-22)
(0.03578425522 -0.003255150053 0)
(0.02198131646 -0.07058336459 -5.512144201e-22)
(-0.001265314683 -0.1525733295 -1.492338771e-23)
(-0.03310509333 -0.2505947878 2.559689813e-23)
(-0.06909267337 -0.3599339612 2.203056587e-22)
(-0.09227847638 -0.4575422666 4.788605922e-24)
(-0.08718098309 -0.469812733 -5.789499799e-22)
(-0.02103128023 -0.2698970937 0)
(-0.01111631986 0.1085974929 0)
(-0.04248909586 0.1947150731 -8.848386865e-22)
(-0.04795547953 0.225819355 -5.410989408e-22)
(-0.03919567593 0.2282132902 4.543768682e-22)
(-0.01877874027 0.2182325289 -1.709988563e-24)
(0.00766377432 0.2028217776 -4.56099587e-23)
(0.03667932252 0.1847617831 5.696613027e-22)
(0.0658293322 0.1647117079 -2.766860481e-23)
(0.09327064212 0.1423127958 -2.069759764e-22)
(0.1173885098 0.1166275564 3.142183419e-23)
(0.1365455542 0.08641156911 -3.425887485e-23)
(0.1489663623 0.0501768646 -3.69056572e-23)
(0.1525270747 0.006159359598 3.205609042e-22)
(0.1449362643 -0.04796108502 6.119558309e-22)
(0.1235156003 -0.115305132 -5.101125853e-22)
(0.08633502196 -0.2004194398 -1.616021791e-22)
(0.0319906198 -0.3067805621 1.53134301e-22)
(-0.02362142678 -0.4239836165 7.293701053e-23)
(-0.0649242099 -0.4871611674 1.9132984e-21)
(-0.02509972793 -0.3291543873 2.954999141e-21)
(-0.02004680222 0.1460727659 -4.390178858e-23)
(-0.06416409809 0.2112955693 4.417351422e-23)
(-0.05070241885 0.2177299627 1.000179888e-21)
(-0.01934118514 0.2014678549 -8.27037584e-24)
(0.0241443327 0.1809074468 0)
(0.07154080718 0.1606931689 4.363668817e-23)
(0.1190698534 0.1416494164 -2.273824455e-22)
(0.1644761993 0.1233180984 -9.027844774e-23)
(0.2062245642 0.104811704 3.680691313e-23)
(0.2429637617 0.08507143206 -1.701639584e-23)
(0.2732202522 0.06296155485 3.429940758e-23)
(0.2952531595 0.03726304777 -6.592625417e-23)
(0.3066967127 0.006535191298 -9.303845931e-23)
(0.3049734993 -0.03087758157 1.517029538e-22)
(0.2863933545 -0.07786281082 0)
(0.2470565928 -0.1399299684 1.505570452e-22)
(0.1810920489 -0.2266299439 2.560017587e-22)
(0.09604437193 -0.3443894561 0)
(-0.006697682584 -0.4552209805 -3.675645913e-21)
(-0.0192240929 -0.3777537206 -2.892628359e-21)
(-0.02591950572 0.2276829067 -9.514185116e-22)
(-0.03998323369 0.2238216714 -1.38896837e-22)
(0.03656135538 0.1810585201 -2.335560385e-22)
(0.1090502341 0.1451058585 -1.193731465e-22)
(0.1817189744 0.1172444762 -4.295776893e-23)
(0.2490088489 0.09627899841 9.783028769e-23)
(0.3100333765 0.08002503742 -1.408571107e-22)
(0.3646205892 0.06656810847 1.297158716e-22)
(0.412624879 0.05449177207 -8.620019936e-23)
(0.453624659 0.04270896081 1.132189703e-25)
(0.4867875239 0.03032301969 1.527727702e-23)
(0.5107448283 0.01652907028 7.99713586e-23)
(0.523659491 0.0005365694947 -1.811108286e-22)
(0.5231796069 -0.01863367875 -1.617131647e-22)
(0.5052321988 -0.04286474609 -4.262861683e-23)
(0.4658714071 -0.07633228447 0)
(0.3952695765 -0.1286089298 -1.846498921e-22)
(0.2916070495 -0.2208468072 8.148784989e-22)
(0.1197454771 -0.3525016878 1.631605119e-21)
(0.02670546417 -0.3775497928 2.172657659e-21)
(0.2142894551 0.1347447286 9.864967892e-22)
(0.2776311442 0.09870504619 0)
(0.4316592576 0.05810415336 -2.594300734e-22)
(0.5304749465 0.03846264813 -1.741647244e-22)
(0.6016965535 0.02623418487 0)
(0.657119833 0.01831922667 -6.008993483e-23)
(0.7015212581 0.0131360015 6.377898585e-23)
(0.7376041183 0.009542122513 -1.800129302e-23)
(0.7669366943 0.00680446409 2.885933116e-23)
(0.7902105213 0.004464748706 2.315005161e-23)
(0.8074553681 0.002221328104 0)
(0.8182620273 -0.0001500645856 -2.873005864e-23)
(0.8216498943 -0.002723837345 0)
(0.8162393745 -0.005712660379 2.738104021e-23)
(0.7991332953 -0.009611377941 1.421648402e-23)
(0.7679986321 -0.01500254973 -5.799446278e-23)
(0.7106555798 -0.0250252017 -2.535673495e-22)
(0.6235184007 -0.04204285663 -6.918118621e-22)
(0.4230091016 -0.09182968347 0)
(0.2705674681 -0.1524021853 -2.119485481e-21)
)


// ************************************************************************* //
