/*--------------------------------*- C++ -*----------------------------------*\
  =========                 |
  \\      /  F ield         | OpenFOAM: The Open Source CFD Toolbox
   \\    /   O peration     | Website:  https://openfoam.org
    \\  /    A nd           | Version:  13
     \\/     M anipulation  |
\*---------------------------------------------------------------------------*/
FoamFile
{
    format      ascii;
    class       vectorField;
    location    "30";
    object      U_all;
}
// * * * * * * * * * * * * * * * * * * * * * * * * * * * * * * * * * * * * * //


400
(
(0.0001765241705 -0.0001802247294 0)
(-0.0001457238627 3.484467351e-05 0)
(-0.001525984276 0.0002697390126 0)
(-0.003748038634 0.0004191030442 0)
(-0.006469698934 0.0004977731029 0)
(-0.009393497207 0.0005270630029 0)
(-0.01227286814 0.0005167709274 0)
(-0.01487821026 0.0004661013295 0)
(-0.01697384032 0.0003686660571 0)
(-0.01831836175 0.0002193934214 0)
(-0.0186909262 2.158938231e-05 0)
(-0.01793919138 -0.0002076693529 0)
(-0.01603733456 -0.0004351433246 0)
(-0.01313611107 -0.0006152203195 0)
(-0.009583331547 -0.0007001453384 0)
(-0.00589475315 -0.0006553165551 0)
(-0.002666448262 -0.000474039407 0)
(-0.0004336971344 -0.0001857965879 0)
(0.000517390415 0.0001297469733 0)
(0.0003025915945 0.0002957344768 0)
(-5.101691679e-05 0.0001444232059 0)
(-0.002051314527 0.001911031414 0)
(-0.006339802283 0.003709314538 0)
(-0.01239320686 0.00495169618 0)
(-0.01946757989 0.005604354041 0)
(-0.02690168593 0.005742629979 0)
(-0.03410005551 0.005417371879 0)
(-0.0404911595 0.004636151322 0)
(-0.04550639319 0.003390200627 0)
(-0.04859811643 0.001698559454 0)
(-0.049301462 -0.0003487261376 0)
(-0.04732928781 -0.002562455633 0)
(-0.04267866206 -0.004652564799 0)
(-0.03571710261 -0.006263271133 0)
(-0.02721171549 -0.007047254124 0)
(-0.01826770388 -0.006768602368 0)
(-0.01015497076 -0.00540778317 0)
(-0.004030449877 -0.00323712287 0)
(-0.0005947477866 -0.0008744696716 0)
(0.0002132899515 0.0005660306661 0)
(-0.0003513509541 0.001700891097 0)
(-0.004409927627 0.006372371903 0)
(-0.01167119473 0.01051208424 0)
(-0.02123721225 0.01331051503 0)
(-0.0320340505 0.01471968814 0)
(-0.04316380529 0.01486550099 0)
(-0.05380186337 0.01383776229 0)
(-0.06314678085 0.01166054242 0)
(-0.07041116066 0.008347815002 0)
(-0.07485591785 0.003991508606 0)
(-0.0758701056 -0.00115537281 0)
(-0.0730839771 -0.006628502484 0)
(-0.06649295602 -0.01175669152 0)
(-0.0565622709 -0.01573789772 0)
(-0.04427415529 -0.01779345417 0)
(-0.03107444107 -0.01738570811 0)
(-0.01867867458 -0.01445054739 0)
(-0.008734878909 -0.009570926572 0)
(-0.002417682801 -0.004052638579 0)
(2.817183373e-05 -8.070047304e-06 0)
(-0.0006232374487 0.004525567637 0)
(-0.00668424245 0.01345397386 0)
(-0.01679643135 0.02058277584 0)
(-0.02961989492 0.02521559464 0)
(-0.04374845245 0.02741530933 0)
(-0.05810651848 0.02739771613 0)
(-0.07172587619 0.02530244884 0)
(-0.08366599653 0.021177355 0)
(-0.09300356069 0.01507344304 0)
(-0.09886906253 0.007180094616 0)
(-0.1005279319 -0.002051725091 0)
(-0.09749608841 -0.01183573673 0)
(-0.08967521252 -0.02105387822 0)
(-0.07748632189 -0.0283647682 0)
(-0.06196657263 -0.03243338734 0)
(-0.04477437616 -0.03227736465 0)
(-0.02803050901 -0.02766851471 0)
(-0.0139579074 -0.01945934485 0)
(-0.004404487122 -0.009697161854 0)
(-0.0001311123304 -0.001546246217 0)
(-0.0008574381074 0.008504669511 0)
(-0.008721440976 0.02293561187 0)
(-0.02142713443 0.03360320658 0)
(-0.03720034751 0.040244529 0)
(-0.05432267884 0.04320268009 0)
(-0.07158469208 0.04285758654 0)
(-0.08793930263 0.03942465985 0)
(-0.1023776348 0.03298068333 0)
(-0.1139003496 0.0236093728 0)
(-0.1215394409 0.0115861062 0)
(-0.1244249038 -0.002457035108 0)
(-0.1218916005 -0.01742546416 0)
(-0.1136258982 -0.03174414929 0)
(-0.09984425697 -0.04346955569 0)
(-0.08147481995 -0.05056900286 0)
(-0.06027749278 -0.05139677221 0)
(-0.03878596382 -0.04531666685 0)
(-0.01996561256 -0.033282848 0)
(-0.006624795625 -0.0180846832 0)
(-0.0002766315626 -0.004103802302 0)
(-0.0010510841 0.01348388612 0)
(-0.01044779702 0.03452788607 0)
(-0.0253861878 0.04923658919 0)
(-0.04371627865 0.05804890059 0)
(-0.06345711482 0.06175808617 0)
(-0.08331208756 0.06099792847 0)
(-0.1022117998 0.05609558816 0)
(-0.1191394021 0.04715840173 0)
(-0.1330702044 0.03427857536 0)
(-0.1429630643 0.01776986915 0)
(-0.1477982064 -0.001620353086 0)
(-0.1466637342 -0.02255532509 0)
(-0.1389086559 -0.04304325688 0)
(-0.1243724383 -0.06050041714 0)
(-0.1036757002 -0.07203397707 0)
(-0.07851111289 -0.07502679915 0)
(-0.05177654293 -0.06803404112 0)
(-0.02734415297 -0.05177870247 0)
(-0.009360273979 -0.02973881051 0)
(-0.000450827245 -0.007829569559 0)
(-0.001197408904 0.01928092867 0)
(-0.0117947077 0.04786606333 0)
(-0.02850738449 0.06705700203 0)
(-0.04889342646 0.07820840643 0)
(-0.07077606323 0.08271549182 0)
(-0.09282118495 0.08155733865 0)
(-0.1139904444 0.07521369025 0)
(-0.1333168467 0.06382161243 0)
(-0.1498046182 0.04744298597 0)
(-0.1623786949 0.02635434826 0)
(-0.1698790705 0.001311478003 0)
(-0.1711176389 -0.0262288609 0)
(-0.1650175868 -0.05395404799 0)
(-0.1508755297 -0.07865643843 0)
(-0.1287659838 -0.09644130109 0)
(-0.1000397041 -0.1033533566 0)
(-0.06775882754 -0.09656127845 0)
(-0.03675998214 -0.07596517601 0)
(-0.01297243022 -0.0455086462 0)
(-0.0007046772554 -0.01305129957 0)
(-0.001288256677 0.02567771729 0)
(-0.01269404353 0.06250249685 0)
(-0.03062515134 0.08652630787 0)
(-0.05243809857 0.1001735087 0)
(-0.07583046238 0.1055676936 0)
(-0.09947784553 0.1041210239 0)
(-0.1224230343 0.09651117635 0)
(-0.1438078139 0.08290724324 0)
(-0.162730978 0.0632983465 0)
(-0.1781506791 0.03783466174 0)
(-0.1888278325 0.007146201128 0)
(-0.1933304695 -0.02735886668 0)
(-0.1901346354 -0.06321548489 0)
(-0.1778808706 -0.09670531113 0)
(-0.1558472415 -0.122884172 0)
(-0.12465468 -0.1361151012 0)
(-0.08710272919 -0.131450856 0)
(-0.04879884021 -0.1070053267 0)
(-0.01785807798 -0.06656736243 0)
(-0.001100838022 -0.02030090117 0)
(-0.001318955981 0.03242276508 0)
(-0.01309948961 0.07791277534 0)
(-0.0316097407 0.1069909837 0)
(-0.05408676088 0.1232374427 0)
(-0.07816489793 0.1296040065 0)
(-0.1025696671 0.1280203919 0)
(-0.126470399 0.1194155054 0)
(-0.1491777248 0.1040047063 0)
(-0.1699639317 0.08167359764 0)
(-0.1879201933 0.05236395375 0)
(-0.2018454304 0.01644105157 0)
(-0.2101831849 -0.02493134194 0)
(-0.2110476678 -0.06938200405 0)
(-0.2024109111 -0.1129287755 0)
(-0.1825609638 -0.1497126703 0)
(-0.1509432695 -0.1722305417 0)
(-0.1094242539 -0.1726574233 0)
(-0.06377809046 -0.1459311014 0)
(-0.02442090772 -0.09433677359 0)
(-0.001721875377 -0.03032876329 0)
(-0.001295622857 0.0392519411 0)
(-0.01302461971 0.0935258645 0)
(-0.03143397557 0.1276996374 0)
(-0.0537002099 0.1465285869 0)
(-0.07744216991 0.1538722996 0)
(-0.1014692395 0.1522629957 0)
(-0.1251191177 0.1429461081 0)
(-0.147930537 0.1262178607 0)
(-0.1694355189 0.1018567736 0)
(-0.1889815798 0.06954484821 0)
(-0.2055717556 0.02926836164 0)
(-0.2177270466 -0.01825202971 0)
(-0.2234083265 -0.07103592303 0)
(-0.2200615075 -0.1252289953 0)
(-0.204941705 -0.1744455056 0)
(-0.1759403255 -0.2094578846 0)
(-0.1331685548 -0.2190113452 0)
(-0.08146971875 -0.1931736392 0)
(-0.03301727798 -0.1303018849 0)
(-0.002681340322 -0.04411310642 0)
(-0.001245089414 0.04593485383 0)
(-0.01259457988 0.1087902566 0)
(-0.03026222713 0.1478530923 0)
(-0.05138676563 0.1690346386 0)
(-0.07360484948 0.1771798333 0)
(-0.09584812108 0.1755145077 0)
(-0.1176685888 0.165678169 0)
(-0.1388908399 0.1481050085 0)
(-0.1593888218 0.1224986851 0)
(-0.1788905825 0.08827862259 0)
(-0.1967874466 0.04499258857 0)
(-0.2119283978 -0.007235889379 0)
(-0.2224357724 -0.06713429807 0)
(-0.2255499418 -0.1314540911 0)
(-0.2176914286 -0.1939421013 0)
(-0.1950594738 -0.2442562136 0)
(-0.1552568344 -0.2677046832 0)
(-0.1007189366 -0.2478988984 0)
(-0.04382913461 -0.1756498472 0)
(-0.004134032685 -0.06285147189 0)
(-0.001228561601 0.05235530639 0)
(-0.01211125301 0.1232842518 0)
(-0.02855141888 0.166691415 0)
(-0.04763010428 0.1896619628 0)
(-0.06703339053 0.1981396319 0)
(-0.08588320905 0.1961467172 0)
(-0.104013416 0.1857979126 0)
(-0.121594286 0.1677344827 0)
(-0.1389072462 0.1416472786 0)
(-0.1561547618 0.1067418991 0)
(-0.1732664674 0.06214011068 0)
(-0.1896741203 0.00729669637 0)
(-0.2040048369 -0.05744360402 0)
(-0.2137490593 -0.1299448969 0)
(-0.2149944169 -0.2049273244 0)
(-0.2025122128 -0.2720471295 0)
(-0.171017312 -0.3140336057 0)
(-0.1190459742 -0.3072598848 0)
(-0.0566147067 -0.2306558118 0)
(-0.006278549034 -0.08790240783 0)
(-0.001363494246 0.05863910737 0)
(-0.01213831403 0.1368722738 0)
(-0.02715364347 0.1836059137 0)
(-0.04338632588 0.2073126095 0)
(-0.05863787306 0.2152457176 0)
(-0.07236174035 0.2123383051 0)
(-0.08478937808 0.2012415579 0)
(-0.0965070114 0.1828576413 0)
(-0.1082447709 0.1569320531 0)
(-0.1207193175 0.1225399767 0)
(-0.1344725239 0.07846182029 0)
(-0.1496588763 0.0235295753 0)
(-0.1657211171 -0.04290583861 0)
(-0.1809219851 -0.1201847707 0)
(-0.1917290444 -0.204834785 0)
(-0.192248447 -0.2879924452 0)
(-0.1745973507 -0.3516817847 0)
(-0.1324349781 -0.3658442102 0)
(-0.07031701729 -0.2937792567 0)
(-0.009338776584 -0.1206019156 0)
(-0.001864359324 0.0653522384 0)
(-0.01362072109 0.1498996774 0)
(-0.02740225501 0.1982386476 0)
(-0.04008857081 0.2209311866 0)
(-0.04978053423 0.2269281657 0)
(-0.05654207278 0.2221769947 0)
(-0.06119385093 0.2098615849 0)
(-0.06482561289 0.1911401788 0)
(-0.06863040326 0.1658465543 0)
(-0.07381321036 0.1330081671 0)
(-0.08149681975 0.0911945998 0)
(-0.0925756801 0.03877664233 0)
(-0.1074524877 -0.02577278808 0)
(-0.1255657612 -0.1033127932 0)
(-0.1445686676 -0.1927398579 0)
(-0.159091243 -0.288186258 0)
(-0.1597856021 -0.3736979308 0)
(-0.1354767316 -0.4157117602 0)
(-0.08257502247 -0.3606064191 0)
(-0.0134743672 -0.1617963367 0)
(-0.003102346523 0.0737936099 0)
(-0.01803189744 0.1633925676 0)
(-0.03109382001 0.2104842962 0)
(-0.03937842385 0.2294275275 0)
(-0.04177569616 0.2314979129 0)
(-0.03946617353 0.2236697546 0)
(-0.0341396606 0.2095148372 0)
(-0.02748743641 0.1903315482 0)
(-0.0211516347 0.1660014811 0)
(-0.01674449415 0.1355464502 0)
(-0.01585262297 0.09745474725 0)
(-0.01999303737 0.04986123215 0)
(-0.03047470062 -0.009321721516 0)
(-0.04806295449 -0.08216277272 0)
(-0.07220867247 -0.169942656 0)
(-0.09940852331 -0.2708425065 0)
(-0.1207780608 -0.373970753 0)
(-0.1217231915 -0.4473005791 0)
(-0.08921063558 -0.4231769768 0)
(-0.01847125203 -0.2110361391 0)
(-0.005592618185 0.08648988088 0)
(-0.02735909774 0.1791488493 0)
(-0.03992982967 0.2201278029 0)
(-0.04187441726 0.2312150338 0)
(-0.0341213368 0.2267670809 0)
(-0.01982001546 0.2144820775 0)
(-0.001857727577 0.1979144446 0)
(0.01741387747 0.1782253295 0)
(0.03597004153 0.1552054551 0)
(0.05192411691 0.1278525397 0)
(0.06339911434 0.09466870758 0)
(0.06845757227 0.05377968912 0)
(0.06509799092 0.002940088134 0)
(0.05138394609 -0.06052940562 0)
(0.02591661817 -0.1396616124 0)
(-0.01066736344 -0.236770584 0)
(-0.05227933485 -0.3484981962 0)
(-0.08382228343 -0.45089044 0)
(-0.08374147814 -0.4704190368 0)
(-0.02312540433 -0.2661995613 0)
(-0.009896409906 0.1087605883 0)
(-0.04314234619 0.1994392793 0)
(-0.05260795696 0.2253773201 0)
(-0.04244820763 0.2227370496 0)
(-0.0188054099 0.2089304067 0)
(0.01208748839 0.191181325 0)
(0.04608021634 0.1721701883 0)
(0.08035540521 0.1524410067 0)
(0.1127533493 0.131459217 0)
(0.1413677246 0.1081334737 0)
(0.1642840387 0.08104297072 0)
(0.1794090605 0.04849275976 0)
(0.1843529606 0.00844979827 0)
(0.176390588 -0.04170310822 0)
(0.1525591148 -0.1056467864 0)
(0.110480996 -0.1886508456 0)
(0.05148148083 -0.2956412458 0)
(-0.01311924919 -0.4174197571 0)
(-0.05706742829 -0.4885914564 0)
(-0.02469157307 -0.3237090923 0)
(-0.01778565677 0.1517779629 0)
(-0.06133963758 0.2236632285 0)
(-0.05244884817 0.217550019 0)
(-0.01474380456 0.1946869034 0)
(0.03479885538 0.1707166868 0)
(0.08776471174 0.1487039638 0)
(0.1401989151 0.1290422168 0)
(0.1898366128 0.111127485 0)
(0.2350950668 0.09390356127 0)
(0.2745753342 0.07617166897 0)
(0.3067407207 0.05667511943 0)
(0.3297122035 0.03406413411 0)
(0.3410968271 0.006800925115 0)
(0.3378784653 -0.02711175677 0)
(0.3162273148 -0.07083300448 0)
(0.2715317153 -0.1302829856 0)
(0.1995804005 -0.2163397787 0)
(0.1025847051 -0.3382564615 0)
(0.004115250746 -0.4566865739 0)
(-0.01601735465 -0.3691746469 0)
(-0.02418211741 0.2083586828 0)
(-0.03784842251 0.2304511221 0)
(0.03731164398 0.1765482958 0)
(0.124999817 0.136774374 0)
(0.2056167508 0.1089088944 0)
(0.2776094775 0.08803072355 0)
(0.3416724175 0.0719407576 0)
(0.3981215953 0.05904382098 0)
(0.4470295824 0.04794846181 0)
(0.4881676641 0.03751783566 0)
(0.5208901631 0.02678758254 0)
(0.5439496983 0.01489527942 0)
(0.5554411717 0.0009563177776 0)
(0.5526882101 -0.01610726972 0)
(0.531849562 -0.03813189121 0)
(0.4874317196 -0.06904756615 0)
(0.4109424172 -0.119062353 0)
(0.2907395577 -0.2093537469 0)
(0.1330447423 -0.338294747 0)
(0.03870911463 -0.3403336281 0)
(0.2419096896 0.1091610889 0)
(0.3135393266 0.09715775745 0)
(0.4444409154 0.05698563298 0)
(0.5497294286 0.0351022644 0)
(0.6240827027 0.02371537714 0)
(0.6795121908 0.0166782507 0)
(0.7232695491 0.01195227627 0)
(0.758477535 0.008678548265 0)
(0.7867033588 0.006256973053 0)
(0.8087539116 0.004250499331 0)
(0.8248085465 0.002359437861 0)
(0.8344872436 0.0003758123218 0)
(0.8369139236 -0.001877916313 0)
(0.8306527799 -0.004565962784 0)
(0.8133796566 -0.008014807375 0)
(0.7811833995 -0.01289164841 0)
(0.7257552398 -0.02125665503 0)
(0.6299056251 -0.03812237772 0)
(0.4592753781 -0.0855840559 0)
(0.3048875011 -0.1257027787 0)
)


// ************************************************************************* //
