/*--------------------------------*- C++ -*----------------------------------*\
  =========                 |
  \\      /  F ield         | OpenFOAM: The Open Source CFD Toolbox
   \\    /   O peration     | Website:  https://openfoam.org
    \\  /    A nd           | Version:  13
     \\/     M anipulation  |
\*---------------------------------------------------------------------------*/
FoamFile
{
    format      ascii;
    class       volScalarField;
    location    "6";
    object      p;
}
// * * * * * * * * * * * * * * * * * * * * * * * * * * * * * * * * * * * * * //

dimensions      [0 2 -2 0 0 0 0];

internalField   nonuniform List<scalar> 
100
(
-3.09192e-09
-0.000582119
-0.000555868
0.000454157
0.0024623
0.00526619
0.00827632
0.010493
0.0110435
0.0102219
0.000662614
-2.94973e-05
-0.000109793
0.000665239
0.00234119
0.00483037
0.00764311
0.00981143
0.0103547
0.00938187
0.000405748
-0.000526682
-0.000836111
-0.000351706
0.00106612
0.00353429
0.00668735
0.00941793
0.0102915
0.00912691
-0.00165774
-0.0028546
-0.00350134
-0.00343481
-0.00232179
0.000308618
0.00435311
0.00856345
0.0107212
0.010061
-0.00618498
-0.00760294
-0.00874339
-0.0094426
-0.00905921
-0.00650771
-0.00128834
0.00560468
0.0109765
0.0128955
-0.0138315
-0.0152697
-0.0170485
-0.0190608
-0.0202469
-0.0185941
-0.0123242
-0.00132435
0.0105173
0.0190958
-0.0252212
-0.025989
-0.028091
-0.0316788
-0.0351271
-0.0352281
-0.0281286
-0.0112855
0.011815
0.0331251
-0.0415267
-0.0390914
-0.0394682
-0.0436352
-0.0487249
-0.0501037
-0.0413425
-0.0158634
0.0259832
0.0714142
-0.0708717
-0.0523905
-0.0454184
-0.0477654
-0.0528492
-0.053583
-0.0408277
-0.00206171
0.0714432
0.171556
-0.152487
-0.0649903
-0.038818
-0.0402361
-0.0460223
-0.0459266
-0.0282888
0.0290515
0.15009
0.337108
)
;

boundaryField
{
    movingWall
    {
        type            zeroGradient;
    }
    fixedWalls
    {
        type            zeroGradient;
    }
    frontAndBack
    {
        type            empty;
    }
}


// ************************************************************************* //
