/*--------------------------------*- C++ -*----------------------------------*\
  =========                 |
  \\      /  F ield         | OpenFOAM: The Open Source CFD Toolbox
   \\    /   O peration     | Website:  https://openfoam.org
    \\  /    A nd           | Version:  13
     \\/     M anipulation  |
\*---------------------------------------------------------------------------*/
FoamFile
{
    format      ascii;
    class       volScalarField;
    location    "6";
    object      p;
}
// * * * * * * * * * * * * * * * * * * * * * * * * * * * * * * * * * * * * * //

dimensions      [0 2 -2 0 0 0 0];

internalField   nonuniform List<scalar> 
400
(
2.686716359e-08
-0.0004440985882
-0.0006928246178
-0.0007343554257
-0.0005833013216
-0.0002705875808
0.0001689657699
0.0007024877779
0.001297454664
0.001918864093
0.002527142138
0.003077173309
0.003519987199
0.003806883938
0.003896502665
0.003764663205
0.003416717466
0.002906085048
0.002345526869
0.001829724026
0.0004775390967
5.398563034e-06
-0.0002638214433
-0.0003197586952
-0.0002078187505
4.603867805e-05
0.0004131058199
0.0008649817697
0.001372168773
0.00190159199
0.002416322078
0.002872971819
0.00322585483
0.003430944364
0.003453452947
0.003277661894
0.00291680492
0.002421147526
0.001914063374
0.001345639502
0.0007422828951
0.0002217350422
-7.733515638e-05
-0.0001349573894
-3.893111717e-05
0.0001822809468
0.0005037849362
0.0009025384116
0.001354116459
0.001829508765
0.002293380229
0.002703590091
0.003013554226
0.003178037486
0.003161434945
0.002947693121
0.002548751265
0.002007475772
0.001413460428
0.0006784655973
0.0006994294075
0.0001209647384
-0.0002153630405
-0.0002724817357
-0.0001791379848
3.043494711e-05
0.0003327550353
0.0007101377925
0.00114442385
0.001611743624
0.00207863006
0.002501376747
0.002827217654
0.003001518722
0.002977440822
0.002727966754
0.002255599054
0.001595571168
0.0008142667818
-0.0001785805262
0.0002172993652
-0.0004015777479
-0.0007584008353
-0.0008056597344
-0.0007052918562
-0.0004963453345
-0.0001998979466
0.0001737453009
0.0006154480389
0.001109140809
0.001625027303
0.002117894279
0.002525086344
0.002775195482
0.002799032866
0.002545611846
0.001997110908
0.001177804423
0.0001364852918
-0.001189424865
-0.0008215502428
-0.00145931818
-0.001823110908
-0.001856079021
-0.001749108278
-0.001544296067
-0.001257822877
-0.0008890369974
-0.0004332531942
0.0001069814022
0.0007108941364
0.001335951102
0.00190861214
0.00233380153
0.002505525302
0.002328755772
0.001744921894
0.0007550592062
-0.0006143961003
-0.00236965766
-0.002528461632
-0.003164610791
-0.003530546168
-0.003556934073
-0.003462430211
-0.003290478793
-0.003049241324
-0.002722077036
-0.002282903381
-0.001710532282
-0.001004846509
-0.0001927270774
0.0006464345354
0.001390859626
0.001880375597
0.001944434141
0.001445514337
0.0003293675258
-0.001423519172
-0.003725376297
-0.00500443324
-0.005623791132
-0.005996229601
-0.006040706588
-0.006003439572
-0.005928462526
-0.005813300754
-0.005619733744
-0.005290268811
-0.004764087497
-0.003996705859
-0.002980735795
-0.001775694748
-0.0005233103335
0.0005470021242
0.001145303119
0.000989001434
-9.982741364e-05
-0.002247210354
-0.005223881257
-0.008332014877
-0.008923307901
-0.009314693132
-0.009418003897
-0.009508774836
-0.009633410545
-0.009778514721
-0.009880135756
-0.009838721508
-0.009533551974
-0.008842845496
-0.007689745084
-0.006065321632
-0.004099706001
-0.002089858962
-0.0004924894509
0.0001652023369
-0.0005444599805
-0.002985904708
-0.006743628805
-0.01256278471
-0.01311592024
-0.01354037958
-0.01374826185
-0.01405117756
-0.01450419491
-0.01508720045
-0.01571054794
-0.01622491678
-0.01643025496
-0.01609524764
-0.0150018713
-0.01301755141
-0.01018602939
-0.006828922041
-0.003592868303
-0.001368461637
-0.001033612304
-0.003443372747
-0.007994516729
-0.01770984121
-0.01821057911
-0.01866965482
-0.01900733177
-0.01958833668
-0.02048901957
-0.02169254192
-0.02308966575
-0.02448039936
-0.02557159869
-0.02598776303
-0.02531306684
-0.02321148424
-0.0195165726
-0.01447146869
-0.008866410625
-0.004042346533
-0.001584180907
-0.0032582542
-0.008385014203
-0.02375570761
-0.02417391641
-0.02463174563
-0.02506142266
-0.0259169571
-0.02731606874
-0.02926024323
-0.03163177662
-0.03418656099
-0.03653610065
-0.03814417826
-0.03836387083
-0.03654246837
-0.03221013674
-0.02535274781
-0.01674492877
-0.008145054526
-0.002067105062
-0.001781372283
-0.006809437887
-0.03069044746
-0.03095100004
-0.0312941743
-0.03165550229
-0.03264837936
-0.03445909777
-0.0371234084
-0.04052535423
-0.04438528481
-0.04822651219
-0.05135436107
-0.05287792697
-0.05179015448
-0.04721593858
-0.03870864241
-0.0267666525
-0.01333887609
-0.001888949446
0.002147431013
-0.001343496622
-0.03860700376
-0.03851664509
-0.03849032257
-0.03842729038
-0.03922649407
-0.04117302566
-0.04434563938
-0.04862939527
-0.05370854712
-0.05902317853
-0.06373155502
-0.06671128253
-0.06662507176
-0.06214579944
-0.05228772717
-0.03700773726
-0.01805464391
0.0004994755681
0.01057054994
0.01110894285
-0.04789511757
-0.04694334711
-0.04603336034
-0.04491199747
-0.04496402791
-0.04658674814
-0.0498868655
-0.05472481057
-0.06072645971
-0.06723536629
-0.07326443087
-0.07747959355
-0.07825203818
-0.07383018972
-0.06268946384
-0.0440837531
-0.0191852083
0.00806703222
0.02691388582
0.03522387976
-0.05972504731
-0.05660548583
-0.05382423247
-0.05063973746
-0.04917991188
-0.04990077582
-0.0528713741
-0.05786126577
-0.06438914317
-0.07165698278
-0.07850665458
-0.08339153017
-0.08441637675
-0.07944577582
-0.06649561468
-0.04406404322
-0.01259889232
0.02536008814
0.05638819034
0.07780492809
-0.07677037459
-0.06804564143
-0.06154873699
-0.05490493151
-0.05110672952
-0.05041635619
-0.05271065269
-0.05755295282
-0.06426221395
-0.07184680606
-0.07894141689
-0.08375719055
-0.08412974311
-0.07753572375
-0.06154342065
-0.03403228487
0.005279899899
0.05768262192
0.1052357054
0.1472984107
-0.1078753147
-0.08363272076
-0.0699752406
-0.05775816797
-0.05064528358
-0.04809673374
-0.04948401879
-0.05399468743
-0.06063798587
-0.06816236989
-0.07496214422
-0.0790004838
-0.07786090515
-0.06850477679
-0.04811403571
-0.01363638815
0.03671303641
0.1053382233
0.1763781778
0.2547853823
-0.1665386445
-0.09834181439
-0.07416056954
-0.05438363432
-0.04415134909
-0.04056113101
-0.04181551558
-0.04653551196
-0.05340937232
-0.06097369062
-0.06745604889
-0.07065441653
-0.06781025671
-0.05585433499
-0.03108827918
0.01083194219
0.07381615313
0.1642999126
0.2740655267
0.4357151795
-0.3965693336
-0.1366980249
-0.07432294301
-0.04695629124
-0.03341237855
-0.02937560537
-0.03130019771
-0.03682984309
-0.04434160468
-0.05227583356
-0.05883230993
-0.06181150774
-0.05859438083
-0.04567414866
-0.01860429306
0.02909243754
0.1054128535
0.2315275533
0.4179272032
0.7781373731
)
;

boundaryField
{
    movingWall
    {
        type            zeroGradient;
    }
    fixedWalls
    {
        type            zeroGradient;
    }
    frontAndBack
    {
        type            empty;
    }
}


// ************************************************************************* //
