/*--------------------------------*- C++ -*----------------------------------*\
  =========                 |
  \\      /  F ield         | OpenFOAM: The Open Source CFD Toolbox
   \\    /   O peration     | Website:  https://openfoam.org
    \\  /    A nd           | Version:  13
     \\/     M anipulation  |
\*---------------------------------------------------------------------------*/
FoamFile
{
    format      ascii;
    class       scalarField;
    location    "6";
    object      p_all;
}
// * * * * * * * * * * * * * * * * * * * * * * * * * * * * * * * * * * * * * //


400
(
4.361902184e-09
-0.0003286527172
-0.0006583546113
-0.0008037308405
-0.0006919168063
-0.0003055733874
0.0003491607259
0.00125287755
0.002374226248
0.003667501887
0.00506964729
0.006499008786
0.007857580232
0.009039106592
0.009942354359
0.0104899123
0.01065002687
0.0104589871
0.01004831621
0.009663130882
0.0003330388882
-5.795719509e-06
-0.0002755071961
-0.0003741032742
-0.0002471489939
0.000117950545
0.0007178252828
0.001538863587
0.002556319457
0.003731248659
0.005007710458
0.006312024476
0.007555575297
0.008642221577
0.009480984443
0.01000274461
0.010178758
0.01003841477
0.009691970459
0.009294861255
0.0006777256948
0.0002393015884
-5.185973318e-05
-0.0001504472688
-3.061720387e-05
0.0003083196008
0.0008621903225
0.001622079147
0.002570128602
0.003674610946
0.004886096505
0.006135948129
0.0073386792
0.008398927169
0.009223928405
0.009740178901
0.009911630435
0.009755612701
0.009363166657
0.008843706812
0.0008348230181
0.0002802157403
-6.853148156e-05
-0.0001960356165
-9.793284624e-05
0.000213834117
0.0007329088012
0.001454631767
0.002368392458
0.003450105223
0.004656414126
0.005921553427
0.007158317088
0.008264276964
0.009134460262
0.009679540901
0.00984683965
0.009639774069
0.009146027142
0.008468983606
0.0006903918227
1.579858515e-05
-0.000405379872
-0.0005771821091
-0.0005093981578
-0.0002239325232
0.0002716840721
0.0009778141747
0.001891953193
0.002998390357
0.004259887854
0.005612064941
0.00696221743
0.008193992893
0.009180356318
0.009804706434
0.009988111778
0.009718048681
0.009091674303
0.008225721146
0.0001681944441
-0.0006279663912
-0.001128280658
-0.001351851649
-0.001319139844
-0.001059682902
-0.000580313416
0.0001262059152
0.001067482665
0.002238287778
0.003609289701
0.005118070576
0.00666483599
0.008113994279
0.009306663201
0.01008539496
0.01033098332
0.01000677462
0.009224956344
0.008127352493
-0.0007984369822
-0.001720687725
-0.002305902481
-0.002586824548
-0.00259460941
-0.002365501409
-0.001903723554
-0.001192475632
-0.0002106570694
0.001051049892
0.002575706851
0.004306629182
0.006138984977
0.007915193155
0.009434814
0.01048200885
0.01087472768
0.01053240678
0.009578021284
0.008187470186
-0.002279138839
-0.003336431931
-0.004014312671
-0.004360043786
-0.004418574105
-0.004233490738
-0.003804682023
-0.003102467242
-0.002087533475
-0.0007296923365
0.0009744733464
0.002982400405
0.00519210187
0.007426446547
0.009435836775
0.01092439096
0.01161225383
0.01133625142
0.01020889197
0.008446323247
-0.004354321112
-0.00555919167
-0.006339743198
-0.006760969446
-0.00688792729
-0.006773742537
-0.00641254866
-0.005758110793
-0.004747228588
-0.003320503138
-0.001442261574
0.0008731930523
0.003543564637
0.006384245662
0.009096203407
0.01128112906
0.01251191522
0.01247535959
0.01122017968
0.009000835525
-0.007121633204
-0.008487402694
-0.009380282673
-0.009888985575
-0.0101089739
-0.01010678157
-0.009869736463
-0.009331473764
-0.008399157468
-0.006975051819
-0.004977145128
-0.002366668733
0.0008176756778
0.004412714636
0.008086399636
0.01132445435
0.01349230151
0.01402073394
0.01278417664
0.01005022892
-0.01070393137
-0.01223923147
-0.01324676999
-0.01384886535
-0.01418733799
-0.01434767096
-0.01430950774
-0.01398334738
-0.01324214952
-0.01194143862
-0.009936931444
-0.007111880358
-0.003421700092
0.001041546032
0.005957568531
0.01070943651
0.01440006227
0.01605782205
0.01518175298
0.01197247222
-0.01526352541
-0.01696128056
-0.01806316847
-0.01874174691
-0.01920962488
-0.0195778418
-0.01981662273
-0.01981091227
-0.01939745274
-0.01838030577
-0.01653978693
-0.0136579335
-0.009559984886
-0.004194175048
0.002214527693
0.009012000196
0.01502348501
0.01870884632
0.01887048215
0.01545654994
-0.0210321335
-0.02284559268
-0.02396682143
-0.02464897261
-0.02521270477
-0.02579995361
-0.02636619131
-0.02676782724
-0.02680647226
-0.02623664141
-0.02476043285
-0.02203581806
-0.01771666992
-0.01152734487
-0.003472565939
0.005897674081
0.01520857141
0.02222569046
0.024615884
0.02173200207
-0.0283766644
-0.03016325435
-0.03110736379
-0.03160242934
-0.03213289993
-0.03286927683
-0.03373776217
-0.03455966727
-0.0351038237
-0.03508222047
-0.03412476975
-0.03176186146
-0.02744562668
-0.02060800108
-0.01088957927
0.001483421651
0.01516067374
0.02723276816
0.03374580953
0.03295094418
-0.03793996592
-0.03932554235
-0.03963506884
-0.03952349
-0.03971727713
-0.04038981931
-0.04140418047
-0.04253050253
-0.04350257196
-0.04399532097
-0.04357726943
-0.04165975025
-0.03748402079
-0.03015837914
-0.01883611122
-0.003157556765
0.01594384922
0.03517617902
0.04859221512
0.05274753596
-0.0509052955
-0.05098106327
-0.04963974893
-0.04807784655
-0.04735320111
-0.04755185995
-0.0483988569
-0.04957432785
-0.05075698155
-0.05157289601
-0.05152619286
-0.04991926298
-0.04580014804
-0.03794468338
-0.02496134753
-0.005669830905
0.01993069366
0.04884236024
0.07308891234
0.08686816345
-0.06955785239
-0.06614056553
-0.06090516711
-0.05631715903
-0.05374354493
-0.05290043442
-0.05320260558
-0.05414858977
-0.05530462832
-0.05620192877
-0.05625329813
-0.05464824004
-0.05023929532
-0.04148708351
-0.02645358136
-0.002971623583
0.03045170025
0.07228974777
0.113222752
0.1440082924
-0.1003648938
-0.08648206527
-0.07207539652
-0.06185326641
-0.05639230057
-0.05414266917
-0.05382004806
-0.054558735
-0.0557111236
-0.05665598597
-0.05668051678
-0.05484347547
-0.04980255602
-0.03969627209
-0.02202917917
0.006464793382
0.04938233855
0.1086430699
0.1765624761
0.2404115024
-0.1717422444
-0.1141994696
-0.07887221078
-0.06030630748
-0.05203199631
-0.04907588711
-0.04890382729
-0.05011873938
-0.05180262977
-0.05318894209
-0.05345626639
-0.05157400975
-0.04605720489
-0.03477199909
-0.01465053921
0.01881760208
0.07209354448
0.1538373751
0.2679949769
0.4173406101
-0.3507782857
-0.1527709515
-0.07362028176
-0.04854660462
-0.03994898191
-0.03788247682
-0.03905089063
-0.04169421329
-0.04469533222
-0.04720790618
-0.04838452534
-0.0471651481
-0.04207863083
-0.03087639288
-0.01007356805
0.02609791851
0.0882159301
0.1988928273
0.3927813859
0.7046514833
)


// ************************************************************************* //
