/*--------------------------------*- C++ -*----------------------------------*\
  =========                 |
  \\      /  F ield         | OpenFOAM: The Open Source CFD Toolbox
   \\    /   O peration     | Website:  https://openfoam.org
    \\  /    A nd           | Version:  13
     \\/     M anipulation  |
\*---------------------------------------------------------------------------*/
FoamFile
{
    format      ascii;
    class       surfaceScalarField;
    location    "6";
    object      phi_0;
}
// * * * * * * * * * * * * * * * * * * * * * * * * * * * * * * * * * * * * * //

dimensions      [0 3 -1 0 0 0 0];

internalField   nonuniform List<scalar> 
760
(
-1.334971252e-05
1.334941382e-05
-6.631574683e-05
5.296601618e-05
-0.0001456623253
7.934660402e-05
-0.0002358630011
9.020069411e-05
-0.0003258752577
9.00122475e-05
-0.0004077516608
8.187642971e-05
-0.000475537526
6.778587535e-05
-0.0005244950233
4.895748202e-05
-0.0005508163951
2.632137325e-05
-0.000551754016
9.375169724e-07
-0.0005260254182
-2.572861561e-05
-0.0004744095747
-5.161578801e-05
-0.0004003052587
-7.410429224e-05
-0.0003100896097
-9.021560718e-05
-0.0002130674105
-9.702210786e-05
-0.0001208265965
-9.224077326e-05
-4.588558737e-05
-7.49410729e-05
5.721114119e-07
-4.645774565e-05
1.477309979e-05
-1.420104729e-05
1.4773082e-05
-6.0685614e-05
7.403511343e-05
-0.000214460059
0.0002067406279
-0.00042806829
0.0002929550531
-0.0006680374292
0.000330169998
-0.0009078990524
0.0003298739458
-0.00112717001
0.0003011474235
-0.001309861926
0.0002504777685
-0.001443232003
0.0001823274079
-0.001517265756
0.0001003550131
-0.001525003533
8.675088615e-06
-0.001463326467
-8.740589316e-05
-0.001334383555
-0.0001805588176
-0.001146752437
-0.0002617354434
-0.000916215808
-0.0003207522624
-0.0006655400779
-0.0003476979227
-0.0004227268318
-0.0003350540898
-0.0002172962736
-0.0002803715926
-7.429778032e-05
-0.0001894561683
-7.32675542e-06
-8.117198749e-05
7.446381355e-06
-0.0001049051926
0.0001789403486
-0.0003532886839
0.0004551241111
-0.0006879000835
0.0006275664884
-0.001061171232
0.0007034411706
-0.00143513819
0.0007038409235
-0.00177955118
0.0006455604047
-0.002070066357
0.0005409929157
-0.002286818495
0.000399079467
-0.002413886324
0.0002274227682
-0.002439784719
3.457341187e-05
-0.00235878048
-0.0001684100673
-0.002172786354
-0.0003665528353
-0.001893287146
-0.0005412346036
-0.001542597868
-0.000671441545
-0.001153739133
-0.0007365566928
-0.0007680516597
-0.0007207415194
-0.0004298310502
-0.0006185921761
-0.0001779104447
-0.0004413767881
-3.584828407e-05
-0.0002232340698
-2.840187081e-05
-0.0001443548797
0.0003232953535
-0.0004809558552
0.0007917251894
-0.0009304827805
0.001077093476
-0.001431356129
0.001204314577
-0.001935507687
0.001207992472
-0.002404667091
0.001114719717
-0.002807474135
0.0009437998156
-0.003117520144
0.0007091253567
-0.0033126408
0.0004225433326
-0.003375532634
9.746512001e-05
-0.003295575808
-0.0002483669108
-0.003071440193
-0.0005906883832
-0.002714125857
-0.0008985488813
-0.00224935494
-0.001136212441
-0.001718419768
-0.001267491791
-0.001176073191
-0.001263088015
-0.0006842277607
-0.001110437532
-0.0003012230498
-0.0008243815421
-6.905916047e-05
-0.0004553979041
-9.746107393e-05
-0.0001811077302
0.000504403145
-0.0006014821405
0.001212099734
-0.001162529214
0.001638140545
-0.001789562165
0.00183134751
-0.002425707326
0.001844137618
-0.003026121418
0.001715133796
-0.003553547734
0.001471226044
-0.003975378225
0.001130955769
-0.004262453946
0.0007096190201
-0.0043896524
0.0002246635664
-0.004338214213
-0.0002998050183
-0.004099261849
-0.0008296406536
-0.003678603862
-0.001319206854
-0.003101209766
-0.001713606538
-0.002414409552
-0.001954291957
-0.001687554154
-0.001989943316
-0.001005723602
-0.001792268083
-0.0004561309196
-0.001373974291
-0.0001097075095
-0.0008018212989
-0.0002071686542
-0.00021579426
0.0007201973843
-0.0007159909095
0.001712296462
-0.001385184041
0.002307333689
-0.00213745495
0.002583618407
-0.002908874234
0.00261555684
-0.003649680115
0.002455939618
-0.004317987672
0.002139533501
-0.004875468655
0.001688436735
-0.005285278361
0.001119428767
-0.00551231749
0.0004517027641
-0.005525962763
-0.0002861596695
-0.005304523867
-0.001051079511
-0.004842448936
-0.001781281872
-0.004157892991
-0.002398162471
-0.003300075181
-0.002812109744
-0.00235301395
-0.002937004543
-0.001431270004
-0.002714012125
-0.0006634524759
-0.002141791862
-0.0001645574291
-0.001300716385
-0.0003717260643
-0.0002477188753
0.0009679162631
-0.0008220237452
0.002286601406
-0.001593175555
0.003078485512
-0.002466479548
0.003456922391
-0.003373178403
0.003522255659
-0.004260676067
0.003343437256
-0.005084222596
0.002963079971
-0.005800875246
0.002405089425
-0.006366150575
0.001684704153
-0.006733538769
0.0008190910272
-0.006857343547
-0.0001623549011
-0.006697624896
-0.001210798204
-0.006230221091
-0.002248685732
-0.005457919818
-0.003170463746
-0.004423923849
-0.003846105713
-0.003222941373
-0.004137987098
-0.002003099301
-0.003933854297
-0.0009491277967
-0.003195763361
-0.0002423814915
-0.002007462753
-0.0006141074723
-0.0002752686086
0.001243184879
-0.0009140296902
0.002925362559
-0.001775248842
0.00393970468
-0.002758069464
0.004439742983
-0.003791388231
0.004555574408
-0.00482225795
0.004374306963
-0.005805492281
0.003946314256
-0.006695695398
0.003295292582
-0.007442292246
0.002431301018
-0.007987823214
0.001364622039
-0.008269930441
0.0001197522941
-0.008227011827
-0.001253716936
-0.00780897741
-0.002666720129
-0.006992681734
-0.003986759363
-0.005802422634
-0.005036364768
-0.004332131266
-0.005608278513
-0.002760432572
-0.005505553017
-0.001341474274
-0.004614721607
-0.0003536759691
-0.002995261046
-0.0009677834227
-0.0002964148317
0.001539599715
-0.0009849172287
0.003613864982
-0.001916370141
0.004871157622
-0.002986132573
0.00550950535
-0.004123159958
0.005692601739
-0.005276821419
0.005527968368
-0.006404544606
0.005074037383
-0.007461917206
0.004352665204
-0.008395928105
0.003365311923
-0.0091416267
0.002110320657
-0.009622123846
0.0006002494921
-0.009754426604
-0.00112141416
-0.009458050292
-0.002963096292
-0.008673511046
-0.004771298511
-0.007388900098
-0.0063209757
-0.005675742335
-0.00732143627
-0.003726177402
-0.007455117914
-0.001867194815
-0.006473704192
-0.0005106903359
-0.004351765488
-0.001478473839
-0.0003098907895
0.001849490543
-0.001028845165
0.004332819341
-0.002002017331
0.005844329817
-0.003122565956
0.0066300539
-0.004321507744
0.006891543446
-0.00555311289
0.006759573432
-0.006780866101
0.006301790568
-0.007965938101
0.005537737231
-0.009058805392
0.004458179305
-0.00999403681
0.003045552124
-0.01068824002
0.001294452773
-0.01104195878
-0.0007676953104
-0.01094691683
-0.003058138115
-0.01030114369
-0.005417071658
-0.009038538806
-0.007583580649
-0.007177105778
-0.009182869329
-0.004885513057
-0.009746710651
-0.002543477074
-0.008815740262
-0.0007270335977
-0.006168208971
-0.002205507398
-0.0003168908355
0.002166381412
-0.001045335541
0.005061263995
-0.002024664883
0.006823659141
-0.003146076271
0.007751465193
-0.004344205511
0.008089672598
-0.00558067356
0.007996041406
-0.006828615536
0.007549732581
-0.008060106186
0.006769227891
-0.009236756201
0.005634829419
-0.01030292241
0.004111718382
-0.01118104671
0.002172577083
-0.01176835572
-0.0001803862747
-0.01194060448
-0.002885889359
-0.01155636885
-0.005801307416
-0.01048418817
-0.008655761357
-0.008654842177
-0.01101221528
-0.00615664875
-0.01224490404
-0.003363596232
-0.01160879278
-0.001015961513
-0.008515843666
-0.003221468738
-0.000323496809
0.002489878239
-0.001044689736
0.005782456855
-0.001992006307
0.007770975699
-0.003053394178
0.008812853003
-0.004168890449
0.009205168831
-0.005310311496
0.00913746242
-0.006464193289
0.008703614433
-0.007618876499
0.007923911071
-0.008755067056
0.006771019975
-0.009838349401
0.005195000732
-0.01081224153
0.003146469231
-0.01159099215
0.0005983644023
-0.01205250603
-0.002424375438
-0.01203506817
-0.005818745292
-0.01134646503
-0.009344364386
-0.009807626138
-0.01255105411
-0.00736178161
-0.01469074856
-0.004275125908
-0.01469544849
-0.001386018066
-0.0114049515
-0.004607486885
-0.0003442334186
0.002834111703
-0.001054567894
0.006492791302
-0.001935596652
0.008652004496
-0.002870114715
0.009747371034
-0.003807516324
0.0101425704
-0.004734537405
0.01006448348
-0.00565560755
0.009624684577
-0.006580218318
0.008848521839
-0.007514655203
0.007705456855
-0.00845516771
0.00613551327
-0.009380242922
0.004071544454
-0.01024064022
0.001458761686
-0.01094319498
-0.001721820725
-0.01133675883
-0.005425181451
-0.01119655322
-0.009484569886
-0.0102392847
-0.01350832263
-0.008215556292
-0.01671447698
-0.005154678827
-0.01775632596
-0.001832297791
-0.01472733246
-0.006439784738
-0.0004074401433
0.003241551926
-0.001127222523
0.007212573695
-0.001917126079
0.009441908097
-0.002655654357
0.01048589927
-0.003311458597
0.01079837458
-0.003895197496
0.0106482224
-0.004435496071
0.01016498313
-0.004967245489
0.009380271222
-0.005525857565
0.008264068833
-0.006142622637
0.006752278318
-0.006838377426
0.004767299301
-0.007613353651
0.002233737961
-0.008428383609
-0.0009067907089
-0.009179872415
-0.004673692578
-0.009661075391
-0.009003366948
-0.009530942856
-0.01363845528
-0.008347781631
-0.0178976382
-0.005790094845
-0.02031401278
-0.002322567831
-0.01819485959
-0.008762352387
-0.0005642375318
0.003805789548
-0.001345399225
0.007993735379
-0.002024985151
0.01012149403
-0.002489907444
0.01095082155
-0.002750168644
0.01105863577
-0.002856270771
0.01075432451
-0.002869888556
0.01017860088
-0.002854817745
0.009365200409
-0.002875691721
0.00828494281
-0.002997029038
0.006873615669
-0.003280378588
0.005050648827
-0.003777530995
0.002730890269
-0.004515754336
-0.0001685673928
-0.00546982722
-0.003719619669
-0.00651159187
-0.007961602378
-0.007327411634
-0.01282263541
-0.007354630759
-0.0178704189
-0.00587832377
-0.02179031976
-0.002774870343
-0.021298313
-0.01153722286
-0.000897209891
0.004702999512
-0.001812697951
0.008909223415
-0.002335262038
0.01064405815
-0.002406613934
0.01102217341
-0.002121816916
0.01077383874
-0.001595881435
0.01022838907
-0.0009341478726
0.009516867347
-0.0002312545775
0.008662307076
0.000422905299
0.007630782896
0.0009376151743
0.006358905771
0.001219112277
0.004769151666
0.001172704563
0.00277729791
0.0007085152129
0.0002956220062
-0.0002359689973
-0.002775135425
-0.001655039556
-0.006542531857
-0.00336637401
-0.01111130103
-0.004835560722
-0.01640123222
-0.005019762616
-0.02160611789
-0.003006278411
-0.02331179723
-0.0145435011
-0.001519058329
0.0062220579
-0.002558552542
0.009948717617
-0.002719735416
0.01080524101
-0.002131482283
0.01043392029
-0.001049297911
0.009691654386
0.0003197585464
0.008859332649
0.001823327643
0.008013298227
0.003342210723
0.007143423921
0.004771087867
0.006201905716
0.006005264256
0.005124729392
0.006933171739
0.003841244164
0.007432608259
0.002277861339
0.007368592793
0.000359637477
0.006606838212
-0.002013380969
0.005025123356
-0.004960817001
0.002614172479
-0.00870035016
-0.0002785344671
-0.0135085252
-0.002654867731
-0.01922978461
-0.002675085736
-0.02329157939
-0.01721858683
-0.002386424889
0.008608482835
-0.003060101983
0.01062239462
-0.002142224947
0.009887363979
-0.0002867605278
0.008578455857
0.002014298556
0.007390595332
0.004483540045
0.006390091178
0.00695837779
0.005538460475
0.009329614478
0.004772187212
0.01150536253
0.004026157693
0.01339094086
0.003239151089
0.01487812147
0.002354063448
0.01583901139
0.001316971346
0.0161159775
8.267148219e-05
0.01554481079
-0.001442214403
0.01391471688
-0.003330722876
0.0110246256
-0.00581025899
0.006829186604
-0.009313086203
0.002051463795
-0.01445206169
-0.001091927385
-0.02014818812
-0.01831051428
-0.002135355624
0.01074383844
-7.035080687e-05
0.008557389753
0.003689220379
0.006127792733
0.007573740998
0.004693935222
0.01130244341
0.003661892929
0.01476760488
0.00292492972
0.0179282658
0.002377799591
0.02076356674
0.001936886277
0.02324417971
0.001545544727
0.02531991026
0.001163420497
0.02691412895
0.000759844684
0.02791871904
0.0003123813242
0.02821017512
-0.0002087845549
0.02760892224
-0.0008409617151
0.02589759575
-0.00161939604
0.02276658473
-0.002679248068
0.01780901834
-0.004355519602
0.01070042362
-0.007343466953
0.002883363643
-0.01233112807
-0.01542715064
0.01074383846
0.0193012282
0.02542902092
0.03012295616
0.03378484914
0.03670977889
0.03908757847
0.04102446472
0.04257000948
0.04373342995
0.0444932745
0.04480565583
0.04459687126
0.0437559095
0.04213651344
0.03945726527
0.03510174572
0.02775827865
0.01542715066
)
;

boundaryField
{
    movingWall
    {
        type            calculated;
        value           uniform 0;
    }
    fixedWalls
    {
        type            calculated;
        value           uniform 0;
    }
    frontAndBack
    {
        type            empty;
    }
}


// ************************************************************************* //
