/*--------------------------------*- C++ -*----------------------------------*\
  =========                 |
  \\      /  F ield         | OpenFOAM: The Open Source CFD Toolbox
   \\    /   O peration     | Website:  https://openfoam.org
    \\  /    A nd           | Version:  13
     \\/     M anipulation  |
\*---------------------------------------------------------------------------*/
FoamFile
{
    format      ascii;
    class       volVectorField;
    location    "6";
    object      U_0;
}
// * * * * * * * * * * * * * * * * * * * * * * * * * * * * * * * * * * * * * //

dimensions      [0 1 -1 0 0 0 0];

internalField   nonuniform List<vector> 
100
(
(-0.000574944 0.000566875 0)
(-0.00544585 0.00160716 0)
(-0.0129504 0.0020838 0)
(-0.0205823 0.00201732 0)
(-0.0261139 0.00142198 0)
(-0.0278435 0.000294425 0)
(-0.0246462 -0.00114264 0)
(-0.0168485 -0.00226314 0)
(-0.0073186 -0.00217423 0)
(-0.000856279 -0.000708288 0)
(-0.00195108 0.00576667 0)
(-0.0147872 0.0127887 0)
(-0.0320537 0.0149839 0)
(-0.048634 0.0129379 0)
(-0.0602092 0.0074777 0)
(-0.0636113 -0.000724436 0)
(-0.0567995 -0.0100215 0)
(-0.0402489 -0.0168548 0)
(-0.0189939 -0.0162975 0)
(-0.00259561 -0.00686151 0)
(-0.00317225 0.0158308 0)
(-0.0226913 0.0317637 0)
(-0.0474129 0.0354655 0)
(-0.0705207 0.0298045 0)
(-0.0868316 0.0168195 0)
(-0.0925235 -0.0020075 0)
(-0.0846675 -0.0233793 0)
(-0.0627367 -0.0400224 0)
(-0.031851 -0.040767 0)
(-0.00465447 -0.0193482 0)
(-0.00428173 0.0301431 0)
(-0.0297446 0.0573276 0)
(-0.0608687 0.0623489 0)
(-0.0899041 0.0521504 0)
(-0.111464 0.0302695 0)
(-0.121333 -0.00143193 0)
(-0.115258 -0.0386582 0)
(-0.0904108 -0.070551 0)
(-0.0501671 -0.077014 0)
(-0.00793765 -0.040242 0)
(-0.00539966 0.0484986 0)
(-0.03662 0.0886211 0)
(-0.0730672 0.094733 0)
(-0.106952 0.0796041 0)
(-0.133441 0.0484594 0)
(-0.14853 0.00277068 0)
(-0.146933 -0.0537218 0)
(-0.122858 -0.107747 0)
(-0.0758669 -0.128351 0)
(-0.013119 -0.0746821 0)
(-0.00654443 0.071118 0)
(-0.0431477 0.124455 0)
(-0.0820109 0.13048 0)
(-0.116593 0.109803 0)
(-0.14399 0.0697404 0)
(-0.16217 0.0106977 0)
(-0.166427 -0.0662938 0)
(-0.14848 -0.148586 0)
(-0.102905 -0.196161 0)
(-0.0197009 -0.130536 0)
(-0.00778876 0.0987752 0)
(-0.0486297 0.162027 0)
(-0.0828774 0.163884 0)
(-0.107705 0.136124 0)
(-0.125474 0.0888 0)
(-0.139235 0.0209488 0)
(-0.147769 -0.0712246 0)
(-0.141907 -0.181658 0)
(-0.111748 -0.270213 0)
(-0.0240504 -0.212995 0)
(-0.0104362 0.136155 0)
(-0.0531855 0.195772 0)
(-0.0661583 0.183591 0)
(-0.0594644 0.146656 0)
(-0.0496722 0.0978633 0)
(-0.046347 0.0332578 0)
(-0.0540067 -0.0572141 0)
(-0.0655079 -0.181603 0)
(-0.069865 -0.315186 0)
(-0.0136193 -0.302556 0)
(-0.0333636 0.195883 0)
(-0.044199 0.214368 0)
(0.0192151 0.16439 0)
(0.086882 0.123318 0)
(0.139211 0.0852464 0)
(0.168554 0.0420545 0)
(0.166246 -0.0188982 0)
(0.133398 -0.12197 0)
(0.0691429 -0.268866 0)
(0.0539148 -0.307959 0)
(0.226006 0.10827 0)
(0.289318 0.102694 0)
(0.409417 0.0695209 0)
(0.505866 0.0485931 0)
(0.568811 0.0348991 0)
(0.604405 0.0237143 0)
(0.605362 0.0104805 0)
(0.568452 -0.00768847 0)
(0.44842 -0.0501767 0)
(0.320036 -0.105256 0)
)
;

boundaryField
{
    movingWall
    {
        type            calculated;
        value           uniform (1 0 0);
    }
    fixedWalls
    {
        type            calculated;
        value           uniform (0 0 0);
    }
    frontAndBack
    {
        type            empty;
    }
}


// ************************************************************************* //
