/*--------------------------------*- C++ -*----------------------------------*\
  =========                 |
  \\      /  F ield         | OpenFOAM: The Open Source CFD Toolbox
   \\    /   O peration     | Website:  https://openfoam.org
    \\  /    A nd           | Version:  13
     \\/     M anipulation  |
\*---------------------------------------------------------------------------*/
FoamFile
{
    format      ascii;
    class       vectorField;
    location    "6";
    object      U_all;
}
// * * * * * * * * * * * * * * * * * * * * * * * * * * * * * * * * * * * * * //


400
(
(-6.771880291e-06 -7.996921332e-06 0)
(-0.0006385679974 0.0003912614482 -1.258990114e-23)
(-0.001982839432 0.000828301114 0)
(-0.003615466473 0.001163636052 0)
(-0.005295288874 0.001352166944 3.605359494e-25)
(-0.006862233761 0.001379771873 3.809679765e-24)
(-0.008205142257 0.001252324259 4.478997965e-24)
(-0.009241484115 0.0009893741483 2.04120651e-23)
(-0.009904738647 0.0006217182247 -3.253035565e-25)
(-0.01014195705 0.0001902065709 -5.841827587e-24)
(-0.009918000269 -0.0002560739828 7.978775423e-24)
(-0.009224571996 -0.0006620928777 -7.837019211e-23)
(-0.008091451594 -0.0009727725961 -8.785082013e-23)
(-0.006596353803 -0.001140862828 -1.031725594e-22)
(-0.004870773399 -0.001137072049 6.379731823e-24)
(-0.003098232949 -0.0009604387383 -6.251719804e-24)
(-0.001502020296 -0.0006451624294 -3.582003086e-22)
(-0.0003118977523 -0.0002610551512 0)
(0.0003145431082 6.343589081e-05 9.344276008e-25)
(0.000168023619 0.0002296309912 -1.059780305e-22)
(-0.0002335230067 0.0007843788363 1.12243912e-25)
(-0.002374281438 0.003005885502 1.268133444e-23)
(-0.006006844377 0.004897054982 1.148604333e-25)
(-0.0103516959 0.006086228623 -4.637989787e-25)
(-0.0148152144 0.006550820851 5.257975654e-25)
(-0.01900170721 0.00633957848 2.7897621e-24)
(-0.02261444972 0.005529777667 1.196203135e-23)
(-0.02542722516 0.004215650255 -1.985717529e-23)
(-0.02726078708 0.002511791049 1.722855173e-23)
(-0.02797776841 0.0005601862758 6.635014867e-24)
(-0.02749080033 -0.00146558357 -8.694039001e-24)
(-0.02578248948 -0.003363324127 1.757093707e-24)
(-0.02293099979 -0.00491500642 4.95121221e-23)
(-0.01913158896 -0.005911943121 -2.88776559e-24)
(-0.01470913301 -0.006190674548 5.779143335e-24)
(-0.01011074634 -0.005676113342 -1.772398727e-22)
(-0.005868527714 -0.004424725362 1.805774111e-22)
(-0.002530532235 -0.002661079009 -1.941353714e-24)
(-0.0004404881335 -0.0008291348397 1.990299386e-24)
(2.869073726e-05 0.0003685403318 0)
(-0.0003507462756 0.002599196685 -2.226652773e-25)
(-0.003959644917 0.007633235892 1.036120214e-23)
(-0.009675609906 0.01139115964 -8.458087959e-24)
(-0.01644338441 0.01355217573 -7.65846303e-26)
(-0.02339353549 0.01419817283 7.523561392e-26)
(-0.02995350193 0.01349493593 2.907823444e-25)
(-0.03567559959 0.01162701331 -1.142281063e-23)
(-0.04020760532 0.008785703265 -1.16946202e-24)
(-0.04326454125 0.005184760199 -1.804866739e-23)
(-0.04462255384 0.001082736007 0)
(-0.04413224406 -0.003199726251 0)
(-0.04174705148 -0.00727871652 3.810153514e-23)
(-0.0375605965 -0.01072307464 4.035524265e-23)
(-0.03184166398 -0.01309758073 -2.661084263e-24)
(-0.02505521999 -0.01403044105 8.611596529e-23)
(-0.01785508125 -0.01330248759 1.716952918e-22)
(-0.01103066028 -0.01094670747 1.328706829e-22)
(-0.005399918112 -0.007342144218 3.568989269e-24)
(-0.001557987651 -0.003288211434 -1.567548214e-24)
(-0.0001045542981 -0.0001303276592 0)
(-0.0004083574283 0.005223544955 -2.673583022e-23)
(-0.005368857418 0.01400526068 -1.020463539e-23)
(-0.01305689989 0.02008530329 8.344621076e-24)
(-0.02213229215 0.02338991674 0)
(-0.03147549285 0.02419949244 0)
(-0.04036861607 0.02284617246 0)
(-0.04824073531 0.01964605785 -4.376146721e-25)
(-0.05462982334 0.01489713861 6.322681898e-24)
(-0.05914624271 0.008915346447 0)
(-0.06146448264 0.002080245771 4.495066426e-24)
(-0.06134113528 -0.005127458713 4.729895033e-25)
(-0.05865297266 -0.01211168233 -4.743141091e-25)
(-0.0534504589 -0.01817551581 0)
(-0.04601430135 -0.02258079571 7.765245532e-23)
(-0.03689811212 -0.02465298538 -8.346402418e-23)
(-0.02693800738 -0.02393311401 -7.487472465e-23)
(-0.01720031732 -0.02036014441 -1.343312405e-22)
(-0.008845319867 -0.01444851701 6.460456659e-25)
(-0.002854848414 -0.007405164907 -2.675069438e-23)
(-0.0002154009384 -0.001241273669 0)
(-0.0004279023173 0.008605188017 2.687614275e-23)
(-0.006663156897 0.022026669 5.297750925e-25)
(-0.01624890004 0.03089799904 -5.176749674e-25)
(-0.02757977586 0.03555445519 0)
(-0.03931481867 0.03657445795 5.185610208e-25)
(-0.05061526186 0.03450487648 -5.113698359e-25)
(-0.06081075121 0.0298071904 1.960946838e-23)
(-0.06934297673 0.02287912158 -9.416290179e-25)
(-0.07571416283 0.01412166829 -7.652313807e-25)
(-0.07947283883 0.004018298422 -4.500301516e-24)
(-0.08023488857 -0.006796433783 0)
(-0.07773196408 -0.01749859016 9.627509524e-25)
(-0.07188758837 -0.02707579902 3.081645308e-23)
(-0.06290850361 -0.03439621017 -8.228293366e-23)
(-0.0513692402 -0.03835162164 4.640727229e-24)
(-0.0382667532 -0.038089214 1.396200775e-22)
(-0.02499671875 -0.03331410108 -1.990000621e-24)
(-0.01319907198 -0.02460055545 0)
(-0.004452319075 -0.01358982123 4.161780398e-23)
(-0.0003186400615 -0.003086890082 -1.040915059e-22)
(-0.0004295420771 0.01270230465 9.850038507e-23)
(-0.007869642546 0.03162964957 -5.201423275e-25)
(-0.01927096742 0.04378824886 0)
(-0.03280679017 0.05005972189 0)
(-0.0469489623 0.05141916343 -7.191681242e-23)
(-0.06076713337 0.04867514204 -6.462642143e-23)
(-0.07351800956 0.04244054966 -2.171979096e-23)
(-0.08456326701 0.03319028735 -4.161209751e-24)
(-0.09329596282 0.02137104072 8.772860322e-25)
(-0.09911436317 0.007526172734 -2.658239212e-24)
(-0.1014421759 -0.007590364662 2.774482082e-25)
(-0.0997853117 -0.02293482266 -3.579726988e-24)
(-0.09383490866 -0.03714165504 -1.2549085e-23)
(-0.08360640589 -0.04858384814 -5.013225524e-23)
(-0.06958950066 -0.0555438247 0)
(-0.05288670274 -0.05653660466 -6.899224028e-23)
(-0.03526473727 -0.0507821881 1.783723699e-24)
(-0.01901277189 -0.03874164889 0)
(-0.006599628446 -0.02249488323 -1.334309829e-23)
(-0.0004482188621 -0.005880132858 2.817922652e-22)
(-0.0004215792922 0.01746782566 -9.780044217e-23)
(-0.008968935699 0.04271909326 2.567646556e-22)
(-0.02205415469 0.0586618135 1.361575026e-22)
(-0.03768480862 0.06685682988 3.076605013e-24)
(-0.0541863838 0.06876979008 -6.174338989e-23)
(-0.07057456147 0.06551497973 6.855009622e-23)
(-0.08606745505 0.05785591065 -2.670389217e-24)
(-0.09997288605 0.04630825872 -1.045944962e-24)
(-0.1115862232 0.03130313947 1.455614412e-24)
(-0.1201451584 0.0133699687 2.247304398e-24)
(-0.124841964 -0.006688962044 -4.898633103e-25)
(-0.1248814148 -0.02765365242 3.890567002e-24)
(-0.1196081513 -0.04780365685 -2.557949006e-23)
(-0.1086982756 -0.06492774208 5.823717478e-23)
(-0.09239308329 -0.07649482057 -1.392124905e-24)
(-0.0717667659 -0.08005791284 0)
(-0.04892578072 -0.07394283109 0)
(-0.02696030101 -0.05814687327 -4.949218926e-25)
(-0.009619317617 -0.03509973405 5.059187117e-25)
(-0.0006361232557 -0.009999743184 8.3346957e-23)
(-0.0004040082135 0.02282732726 0)
(-0.009902883466 0.05513303034 1.733213485e-22)
(-0.0244492304 0.07532602166 7.74200783e-23)
(-0.04194193883 0.08577385386 0)
(-0.06060649925 0.08852246747 1.306620177e-22)
(-0.07944799867 0.08503524397 0)
(-0.09768927113 0.07622347137 -1.099693837e-22)
(-0.1146252751 0.06260003702 4.782300474e-24)
(-0.1294878908 0.04450410541 0)
(-0.1413747413 0.02235164808 0)
(-0.1492395232 -0.003115994141 -7.240933709e-25)
(-0.1519469416 -0.03059932057 -2.636421279e-25)
(-0.1484042841 -0.05808138073 6.105254203e-23)
(-0.1377868359 -0.08273410521 -3.703701551e-23)
(-0.1198651693 -0.1010296524 1.066732902e-26)
(-0.09543364736 -0.1091675594 -9.193407219e-25)
(-0.06675168852 -0.1039814216 9.338275753e-25)
(-0.03774502456 -0.08435801074 0)
(-0.01389233901 -0.05273624397 1.708611113e-24)
(-0.0009196128795 -0.01601647547 -6.114240856e-22)
(-0.0003759872632 0.02866570086 0)
(-0.01059999525 0.06861384427 -1.027739704e-22)
(-0.02626385915 0.09344716667 -5.446224147e-22)
(-0.04520963623 0.1064506639 -3.247145108e-22)
(-0.06560788806 0.1103384653 0)
(-0.08649731669 0.1069709454 3.37344225e-22)
(-0.107155294 0.09741097413 9.704312612e-23)
(-0.1269207591 0.08213024578 -4.127932953e-24)
(-0.14502536 0.06129920125 4.107504027e-24)
(-0.1604919374 0.03510980322 0)
(-0.1720900919 0.0041043382 2.07286125e-23)
(-0.1783745053 -0.03050223596 2.86487183e-24)
(-0.1777900203 -0.06653151156 -5.541691589e-23)
(-0.1688889103 -0.1006217976 3.121419823e-23)
(-0.1507233844 -0.1281732524 -1.216171848e-22)
(-0.1234316551 -0.1436712445 0)
(-0.089002398 -0.1417015296 0)
(-0.05195106763 -0.1189732977 0)
(-0.01984866965 -0.07706258953 0)
(-0.001349665856 -0.024730085 3.482011343e-22)
(-0.0003425557113 0.03483032657 0)
(-0.01101395104 0.08280713081 -3.085156278e-22)
(-0.02733110021 0.1125305771 7.854389017e-22)
(-0.04711670533 0.1282898642 3.126740934e-22)
(-0.06852198405 0.133557961 0)
(-0.0906600651 0.1306512384 -3.166235113e-22)
(-0.112914804 0.1208051125 -2.549031974e-23)
(-0.1347381642 0.1044327769 2.663840755e-22)
(-0.1554527845 0.08148004508 1.390715831e-22)
(-0.1741216673 0.05181674846 -3.155507665e-23)
(-0.1894702242 0.01563961503 1.426613005e-23)
(-0.1998672011 -0.02611997008 -5.842285028e-24)
(-0.2033817227 -0.07136134603 2.48795356e-22)
(-0.1979399418 -0.116438914 0)
(-0.1816829456 -0.155822151 1.216758446e-22)
(-0.15365217 -0.1821175842 2.137492386e-24)
(-0.1148816585 -0.1869061281 -2.169388448e-24)
(-0.06976510744 -0.1632030555 3.936641194e-23)
(-0.02793075263 -0.1099267355 -2.043112289e-24)
(-0.002004531018 -0.03720353836 0)
(-0.0003231579072 0.04116296173 0)
(-0.01117962137 0.09730050098 0)
(-0.02761032859 0.1319391304 -4.421383597e-22)
(-0.04743276986 0.1504429288 -1.649344659e-23)
(-0.06879976097 0.1571486833 1.72936854e-23)
(-0.09093820645 0.154905699 -1.70894796e-23)
(-0.1133904962 0.1451685934 -1.891673894e-23)
(-0.1357964605 0.1283105229 -2.416380431e-22)
(-0.1576797644 0.1040407562 5.999266541e-23)
(-0.1782989218 0.07185315775 3.499262116e-23)
(-0.1965363433 0.03148308571 -3.506005101e-23)
(-0.2108111982 -0.01661957422 0)
(-0.2190638627 -0.07076982806 -4.264221088e-23)
(-0.2187675813 -0.127444546 0)
(-0.2071344978 -0.1806372556 -2.816625352e-22)
(-0.181755531 -0.2213163772 3.63737849e-22)
(-0.1418788993 -0.2376155782 0)
(-0.09051563477 -0.2171193547 -3.733446242e-23)
(-0.03848566276 -0.1530278837 7.591702093e-23)
(-0.003008824895 -0.05477924935 -2.228844122e-22)
(-0.0003654667386 0.04757205709 0)
(-0.01129045807 0.1117150513 8.219137113e-22)
(-0.0273164189 0.1509610193 -2.171230926e-23)
(-0.04624794054 0.1718458153 8.166201622e-22)
(-0.06625035955 0.1797147374 -2.200067801e-23)
(-0.08671809523 0.1780499343 2.413639434e-23)
(-0.1074105176 0.168597808 -2.391605324e-23)
(-0.1282304149 0.1517499181 -1.381715686e-23)
(-0.1490119064 0.1270244106 -4.37762707e-22)
(-0.169371285 0.09355607662 -7.373016713e-24)
(-0.1885784652 0.05057483503 7.97625176e-24)
(-0.2054255522 -0.002106749608 2.814387126e-22)
(-0.2180806279 -0.06354323306 -4.816881698e-22)
(-0.2239413966 -0.1308793841 0)
(-0.2195895329 -0.1983998968 7.091344618e-22)
(-0.2011101803 -0.2562453096 -3.429965268e-22)
(-0.1652730149 -0.2893916073 -1.087886545e-23)
(-0.1120732874 -0.2786461345 0)
(-0.0515235989 -0.2072613192 -7.316502453e-23)
(-0.004556769561 -0.07903657432 2.198284798e-22)
(-0.0005711994991 0.05416367693 1.390593219e-23)
(-0.01180495455 0.125858204 -7.84462779e-22)
(-0.02706503165 0.1689275632 -1.048350818e-21)
(-0.04415102025 0.1913063544 -7.665460823e-22)
(-0.06126596404 0.1995786451 0)
(-0.07807814258 0.1979818918 3.055291522e-23)
(-0.09464889252 0.1886376857 -6.313138657e-23)
(-0.1112206995 0.1720383703 5.047367675e-23)
(-0.1280269938 0.1476038657 2.549450327e-22)
(-0.1451682782 0.1142001706 -9.666184473e-24)
(-0.1624933674 0.070604472 0)
(-0.1794524863 0.01595008826 -3.054252802e-22)
(-0.1948547663 -0.04976190494 6.535069586e-22)
(-0.2065684264 -0.1248978765 7.821317586e-22)
(-0.2111592139 -0.2049775827 -4.37501074e-22)
(-0.2036680003 -0.2806943534 4.404234508e-22)
(-0.1782404033 -0.335236265 6.641826646e-24)
(-0.1303502982 -0.3425961696 -6.748517393e-24)
(-0.06628817175 -0.2716806967 -1.841872001e-22)
(-0.006923896081 -0.1116181453 0)
(-0.001145569517 0.06145541347 -1.736638196e-23)
(-0.01359487021 0.139916062 -1.219076571e-21)
(-0.02800638065 0.185326815 9.919226219e-22)
(-0.04233103909 0.2075807652 6.172087105e-22)
(-0.054904677 0.2148805703 5.4801685e-22)
(-0.0658920028 0.2123460945 5.9966438e-22)
(-0.0757983899 0.2025292745 -3.93625082e-23)
(-0.08529228311 0.1860872717 -3.087260883e-22)
(-0.09506104885 0.1624427511 1.917417217e-22)
(-0.1057414555 0.1303254096 0)
(-0.1178425173 0.08820122807 0)
(-0.1316238536 0.03463227435 2.415922208e-22)
(-0.1468514381 -0.03133838217 8.904385813e-23)
(-0.1624130396 -0.1096028055 -2.318428726e-22)
(-0.1756961196 -0.1977627396 -4.885717172e-23)
(-0.1817361244 -0.2887648264 1.433367507e-22)
(-0.1728409209 -0.3665127479 -2.846642804e-22)
(-0.1392662267 -0.4003463433 -6.085104951e-23)
(-0.08066676867 -0.3422088883 1.839354223e-22)
(-0.01043017876 -0.1538564503 -6.675383135e-22)
(-0.002503536717 0.07075330335 0)
(-0.01814842025 0.1547059125 1.982924733e-21)
(-0.03185754191 0.1999001471 0)
(-0.04241234297 0.2194126512 -1.251603629e-21)
(-0.04855506126 0.22365298 6.875715137e-23)
(-0.05136883172 0.2186992681 -5.587403265e-22)
(-0.05202425648 0.2074929643 -4.335216053e-22)
(-0.0517125247 0.1908384937 7.471808546e-22)
(-0.05158863309 0.1682115075 -1.677480054e-22)
(-0.05279077649 0.1383192137 0)
(-0.0564328586 0.0994914932 0)
(-0.06355155259 0.04994783167 2.79744481e-23)
(-0.0749546502 -0.01199170377 -5.520727396e-22)
(-0.09087817112 -0.08762826838 -3.964769474e-22)
(-0.1103332267 -0.1770048171 4.415470621e-22)
(-0.1297541626 -0.2768057553 -5.874649312e-22)
(-0.1414976986 -0.3748689495 6.580350993e-23)
(-0.1312872185 -0.4406633097 7.636420821e-23)
(-0.09061925023 -0.4105073816 5.859039474e-22)
(-0.01531423233 -0.2060486414 6.662803061e-22)
(-0.005392726758 0.08460940432 0)
(-0.02769564138 0.1714948746 1.522424008e-22)
(-0.04045221121 0.212107009 -4.633475321e-23)
(-0.04544467012 0.2249584702 7.140095588e-22)
(-0.04246167603 0.2233832012 -6.504740823e-22)
(-0.03421546883 0.2142644288 4.393010106e-23)
(-0.02282621671 0.2006793088 -1.001038716e-22)
(-0.01008426982 0.1834080548 -3.072024685e-22)
(0.002429889382 0.1619193929 1.903736401e-22)
(0.01318803792 0.1349472323 0)
(0.02063432999 0.1008358136 0)
(0.02314302203 0.05772187829 -2.701383417e-22)
(0.01901704302 0.003612241683 0)
(0.006713195204 -0.06366721448 -5.325159479e-22)
(-0.01480315767 -0.1461848296 -3.926196302e-24)
(-0.04459150314 -0.2448588658 2.442814928e-23)
(-0.0778286019 -0.3544538838 1.919491099e-22)
(-0.09790779807 -0.451395985 5.717012448e-24)
(-0.08964463258 -0.4634553983 -6.009204622e-22)
(-0.02122088828 -0.2658279453 0)
(-0.01122955733 0.1084942034 0)
(-0.04448579058 0.1923313513 -8.397365942e-22)
(-0.05288916922 0.2207998491 -5.237197766e-22)
(-0.04747161873 0.2212936392 4.402332714e-22)
(-0.03032279152 0.2105844618 -1.94224218e-24)
(-0.0067284823 0.1956387148 -4.341998664e-23)
(0.0200925703 0.1790146707 5.319060321e-22)
(0.04784137314 0.161072352 -2.569539774e-23)
(0.07470750799 0.1410800311 -1.906756432e-22)
(0.0990088414 0.1177606861 2.936362044e-23)
(0.1189879152 0.08955955244 -3.227772336e-23)
(0.1326960379 0.05474966638 -3.527883075e-23)
(0.1378378998 0.01143806284 3.087890599e-22)
(0.1319350573 -0.04271863958 5.919471479e-22)
(0.1122183816 -0.1106922323 -4.975521097e-22)
(0.0766953643 -0.1967130763 -1.64697512e-22)
(0.02460789241 -0.3037488194 1.468126451e-22)
(-0.0287022171 -0.4210408272 7.227314909e-23)
(-0.06760720018 -0.4837942076 1.898515954e-21)
(-0.02541239376 -0.326566752 2.937067819e-21)
(-0.01997336857 0.1467609409 -4.28169576e-23)
(-0.06505921435 0.210938162 4.308209053e-23)
(-0.05359365245 0.2155841343 9.765112641e-22)
(-0.02484788269 0.1977504612 -1.823321506e-24)
(0.01582368202 0.1763527777 0)
(0.06058245369 0.1561272302 4.175229696e-23)
(0.1059433362 0.1377931882 -2.150382239e-22)
(0.1498646872 0.1207053375 -8.490668596e-23)
(0.1909093275 0.1037312989 3.443517196e-23)
(0.2277208193 0.08556703049 -1.587612638e-23)
(0.258739363 0.0648475408 3.231591589e-23)
(0.2820674675 0.0401665338 -6.296504976e-23)
(0.2951576926 0.009981834478 -8.879937516e-23)
(0.295198832 -0.02745208246 1.491018607e-22)
(0.2783456279 -0.07491640829 0)
(0.2405446942 -0.1377524729 1.547063849e-22)
(0.1760510135 -0.2251209835 2.497006523e-22)
(0.09242159665 -0.3434732523 0)
(-0.008693193842 -0.4540457144 -3.646606614e-21)
(-0.01952838321 -0.3766676903 -2.875034822e-21)
(-0.02571451037 0.2283912683 -9.454866124e-22)
(-0.0396264265 0.2243409125 -1.370330493e-22)
(0.0362681337 0.1806865812 -2.27938431e-22)
(0.1072880186 0.143799784 -1.155790615e-22)
(0.1779949929 0.1153235573 -4.257621106e-23)
(0.2431540345 0.0941659137 9.513889296e-23)
(0.3022251824 0.07812898139 -1.347008128e-22)
(0.3553102061 0.06520987767 1.223318244e-22)
(0.4024363987 0.05386438972 -8.066469045e-23)
(0.4432515969 0.04286797025 1.190485158e-25)
(0.4768941027 0.03119079937 1.451721814e-23)
(0.5019020138 0.01791699503 7.639017907e-23)
(0.5162045097 0.002173731721 -1.754329673e-22)
(0.5172549617 -0.01701895602 -1.588713364e-22)
(0.5008299738 -0.04152681364 -4.254959207e-23)
(0.4627363903 -0.07545336237 0)
(0.3930892086 -0.1282029202 -1.772096334e-22)
(0.2900803805 -0.2208064772 8.060722471e-22)
(0.1187723916 -0.3524316421 1.618325012e-21)
(0.02646249854 -0.37741055 2.165743409e-21)
(0.2145014015 0.1349529219 9.799557387e-22)
(0.278307401 0.09898122053 0)
(0.4324394878 0.05823964768 -2.568413929e-22)
(0.5308428766 0.03842652115 -1.732279002e-22)
(0.6011994462 0.02606878632 0)
(0.6555253923 0.01809742889 -5.867992463e-23)
(0.6988452619 0.01293344224 6.094027292e-23)
(0.7340681036 0.009419166201 -1.682926458e-23)
(0.7628992156 0.006796099132 2.699158052e-23)
(0.7860888109 0.004578350832 2.164988246e-23)
(0.8036518279 0.00243575824 0)
(0.8150910795 0.0001271729686 -2.737753002e-23)
(0.819311272 -0.002468766527 0)
(0.8147941523 -0.005493698446 2.67783664e-23)
(0.7984588211 -0.009465794238 1.474579032e-23)
(0.7678597095 -0.01495572638 -5.698421604e-23)
(0.7107729028 -0.02506126108 -2.489008044e-22)
(0.6236411789 -0.04212985422 -6.848844337e-22)
(0.4230089953 -0.09191199501 0)
(0.2705475585 -0.1524426255 -2.112739913e-21)
)


// ************************************************************************* //
