/*--------------------------------*- C++ -*----------------------------------*\
  =========                 |
  \\      /  F ield         | OpenFOAM: The Open Source CFD Toolbox
   \\    /   O peration     | Website:  https://openfoam.org
    \\  /    A nd           | Version:  13
     \\/     M anipulation  |
\*---------------------------------------------------------------------------*/
FoamFile
{
    format      ascii;
    class       scalarField;
    location    "8.31";
    object      p_all;
}
// * * * * * * * * * * * * * * * * * * * * * * * * * * * * * * * * * * * * * //


400
(
-2.149838092e-09
-0.0005034487788
-0.000806250985
-0.0008980944223
-0.0007897349177
-0.0005128245589
-0.0001036996845
0.000403022259
0.0009725371806
0.001566423895
0.002141636351
0.002648282544
0.003033680152
0.00324642567
0.003245034372
0.003009154242
0.002553360036
0.001931408097
0.001315106627
0.0007491001514
0.0005407863624
5.945128492e-06
-0.0003178976828
-0.0004241390471
-0.0003597807001
-0.0001511264429
0.000172689014
0.0005826977721
0.0010481011
0.001532118799
0.002000483582
0.002400858601
0.002685943016
0.002809890644
0.00273852226
0.002460428331
0.001997125634
0.001407688588
0.0008475803383
0.0002190190821
0.0008636266854
0.000271461575
-8.675460431e-05
-0.0001958195597
-0.0001519334183
1.53721781e-05
0.0002815357138
0.000624342014
0.001019807648
0.001439370174
0.001842292925
0.002186779138
0.002422202684
0.00250121611
0.002388618711
0.002072224527
0.0015713615
0.0009372065329
0.0002800715714
-0.0005172684034
0.0008611859884
0.0002011824876
-0.0002014152572
-0.0003135522735
-0.0002792710961
-0.0001345979185
9.827368413e-05
0.0004043094617
0.0007677358136
0.001166189421
0.001564158143
0.001916118083
0.002165095958
0.002253292731
0.002132859956
0.00177917022
0.001200534704
0.0004392790962
-0.0004238604197
-0.001512509509
0.0003743603287
-0.0003311324049
-0.0007594593068
-0.0008669401564
-0.000836053454
-0.0007076633365
-0.0004998525246
-0.000217616375
0.0001351593889
0.0005461563438
0.0009855476852
0.00140652206
0.001741329524
0.001913275277
0.001849085501
0.001496723382
0.0008408831604
-8.926319955e-05
-0.001234707738
-0.002685429395
-0.0007349340195
-0.001458562834
-0.001896247726
-0.001997245664
-0.001975892414
-0.00187516041
-0.001705564896
-0.001457361954
-0.001116420501
-0.0006776791398
-0.0001587505836
0.0003975047929
0.0009118144956
0.001280927904
0.00138951671
0.001135001083
0.0004548354824
-0.0006492797013
-0.002144371748
-0.004056147717
-0.002594655481
-0.003307744306
-0.003748492018
-0.003855116486
-0.003870807417
-0.003837991382
-0.003755401814
-0.003592166567
-0.00330673443
-0.002864289387
-0.002257550968
-0.001508960969
-0.0007038199505
2.532126245e-05
0.0005013683829
0.0005356058316
-2.486631839e-05
-0.001241913356
-0.003133395493
-0.005619328617
-0.005312366576
-0.005992056763
-0.006439729698
-0.006582606855
-0.0066906523
-0.006804183297
-0.006906631382
-0.006939197524
-0.006821280573
-0.006471766213
-0.005841011762
-0.004872362642
-0.003666416317
-0.002368500879
-0.00123210267
-0.0005795203927
-0.0007262502576
-0.00187275509
-0.004152741791
-0.007330142549
-0.008964782239
-0.009593048459
-0.01005986399
-0.0102855473
-0.01056673155
-0.01094284502
-0.01138101141
-0.01178928052
-0.01203616094
-0.01196769156
-0.01142407023
-0.01034863686
-0.008693210373
-0.006610425753
-0.004430171965
-0.002657468179
-0.001875278951
-0.002557153839
-0.005093480542
-0.009048275831
-0.0135832489
-0.01414421511
-0.01464275112
-0.01499941335
-0.015542832
-0.01631777768
-0.01727907511
-0.01830111558
-0.01919260389
-0.01971032477
-0.01958237737
-0.01856927278
-0.016524466
-0.01350402438
-0.009864069114
-0.006310229453
-0.003810466139
-0.003317345454
-0.005741717465
-0.01045432186
-0.01914673101
-0.01962123012
-0.0201479664
-0.02065576404
-0.02152183236
-0.0228093683
-0.02447077989
-0.02635232046
-0.02820137138
-0.02967087565
-0.03033794901
-0.02975629055
-0.0275709379
-0.02363070571
-0.01821078041
-0.0121607374
-0.006908722169
-0.004136853064
-0.005704282608
-0.01091451647
-0.02559340706
-0.02594740716
-0.02645615647
-0.02706163
-0.02822724563
-0.03005613923
-0.03251340745
-0.03542752255
-0.03849063328
-0.04125062534
-0.04311800862
-0.04340751702
-0.04147986824
-0.03686174862
-0.02957879533
-0.02045636001
-0.01133014367
-0.004807708608
-0.004280118742
-0.009270430718
-0.03286477049
-0.03302103936
-0.0333825282
-0.03389884742
-0.03519447217
-0.03744263915
-0.04063743478
-0.04459851863
-0.04897004323
-0.05320197617
-0.05654510855
-0.05808631303
-0.05681787683
-0.05190780064
-0.04295493778
-0.03050084554
-0.01654795636
-0.004609104947
-0.0002351980046
-0.003546371127
-0.04100736396
-0.04077336859
-0.04071342213
-0.04075125524
-0.04180815308
-0.04416248929
-0.04784664384
-0.05266890948
-0.05822247971
-0.06386320199
-0.06869208364
-0.07157206405
-0.07119645858
-0.0662987343
-0.05596924052
-0.04021606499
-0.02083000495
-0.001860544036
0.008551359342
0.009380261316
-0.05037060107
-0.04923896854
-0.04822437447
-0.04711756006
-0.04735171525
-0.04932918478
-0.05310531223
-0.05844910535
-0.06487763233
-0.07163709263
-0.07767877559
-0.08165856151
-0.08199984659
-0.0770357683
-0.06535306581
-0.04627867622
-0.02106060155
0.006438960772
0.02552673652
0.03416948009
-0.06209099436
-0.05876028896
-0.05578928268
-0.05251306335
-0.05115077991
-0.05217697964
-0.05560082473
-0.06108605418
-0.068017469
-0.07548582193
-0.0822694445
-0.08680880988
-0.08727385986
-0.08162260942
-0.0680157601
-0.04505263259
-0.01335681065
0.02476456096
0.0558432666
0.07754817191
-0.07882037819
-0.06985970794
-0.06308160711
-0.05624285311
-0.05248058514
-0.05207974935
-0.05484302937
-0.06020400947
-0.06733386621
-0.07511823511
-0.0821174104
-0.08652984858
-0.08626089876
-0.07889303892
-0.0621534268
-0.0340602325
0.005271902068
0.05850527668
0.1056432208
0.1478407818
-0.1094429752
-0.08495038702
-0.07092746374
-0.05844540295
-0.05136446016
-0.049127719
-0.0510323373
-0.0561108563
-0.06321627289
-0.07097044064
-0.07769418933
-0.08134275426
-0.079618326
-0.06939419083
-0.04818993368
-0.01304233095
0.03769208782
0.1065737322
0.1774391042
0.2559100521
-0.1676576984
-0.09926163784
-0.0746320334
-0.05458244049
-0.04437345126
-0.04111863347
-0.04291621399
-0.04823080006
-0.05559600553
-0.06342421387
-0.06986634051
-0.07270108686
-0.06918178137
-0.05658339108
-0.0310453635
0.01154994674
0.07498164433
0.1657020967
0.2754498993
0.4370310714
-0.3976676563
-0.1375179598
-0.07467651205
-0.04698513425
-0.03343355755
-0.02970701948
-0.03215363979
-0.03826843955
-0.04628121308
-0.05451348883
-0.06109369997
-0.06380986124
-0.06009587808
-0.0464919744
-0.0186913394
0.02965115905
0.1064276498
0.2327887367
0.4192179866
0.7793843322
)


// ************************************************************************* //
