/*--------------------------------*- C++ -*----------------------------------*\
  =========                 |
  \\      /  F ield         | OpenFOAM: The Open Source CFD Toolbox
   \\    /   O peration     | Website:  https://openfoam.org
    \\  /    A nd           | Version:  13
     \\/     M anipulation  |
\*---------------------------------------------------------------------------*/
FoamFile
{
    format      ascii;
    class       scalarField;
    location    "31.49";
    object      p_all;
}
// * * * * * * * * * * * * * * * * * * * * * * * * * * * * * * * * * * * * * //


400
(
3.976606566e-07
-0.0005470492473
-0.0008891004226
-0.00101659085
-0.0009377336289
-0.0006848770113
-0.0002955869897
0.000194144026
0.0007477845161
0.001324843742
0.001879681159
0.002359442082
0.002708736148
0.002874471616
0.002815117193
0.00251267918
0.001987627167
0.001297099053
0.0006381756486
4.227843405e-05
0.0005886048156
7.306677587e-06
-0.0003564330919
-0.0004987615155
-0.000468108884
-0.0002910459424
3.047897747e-06
0.0003848877358
0.0008230656486
0.00128031181
0.001716775633
0.002081300703
0.002323516983
0.002396062228
0.002265069204
0.001921766431
0.001392901875
0.0007435308282
0.0001458874192
-0.0005167942192
0.0009528581369
0.0003084515398
-9.280741442e-05
-0.0002391414233
-0.0002330201715
-0.0001045198091
0.0001223169664
0.0004262004071
0.0007834002689
0.001161911857
0.001529935739
0.00183333742
0.0020221861
0.002047759204
0.001874923171
0.001493864256
0.000928565059
0.0002355864552
-0.0004628773441
-0.001299845233
0.0009765653802
0.0002584019551
-0.0001918514881
-0.0003441527678
-0.0003534175315
-0.0002564360628
-7.384644796e-05
0.0001817558039
0.0004968273106
0.000851133784
0.001203482091
0.001510955156
0.001712751833
0.001748339489
0.001568850308
0.001150900209
0.0005063141831
-0.0003181677511
-0.001233493288
-0.002384286838
0.0004809009347
-0.0002845812153
-0.0007634846262
-0.0009151885964
-0.0009362167147
-0.000867793176
-0.0007248872642
-0.0005079517143
-0.0002167037498
0.000139608674
0.0005305522877
0.0009078545182
0.001200290428
0.001326973763
0.00121149062
0.0008006459119
8.039332707e-05
-0.0009172027369
-0.00212718098
-0.003655674958
-0.0006859408884
-0.001466726104
-0.001955771942
-0.002106824252
-0.002149602333
-0.002126252239
-0.002041870529
-0.001879246343
-0.001617127891
-0.001245088921
-0.000778667989
-0.0002624050175
0.0002210769421
0.0005619464737
0.0006382917099
0.0003419806322
-0.0003925817261
-0.001563617913
-0.003134397713
-0.005141629898
-0.002661397613
-0.003423112534
-0.003914978056
-0.004080354412
-0.004177718464
-0.004246767508
-0.004277782722
-0.004228724851
-0.004047117635
-0.003689159441
-0.003140299713
-0.002426295621
-0.001633048567
-0.0009029802911
-0.0004243748145
-0.0003982447892
-0.0009877953821
-0.002260135375
-0.004232291334
-0.006827865404
-0.00555458717
-0.006269512352
-0.006767800407
-0.006981745845
-0.007195130145
-0.00744302099
-0.007696720803
-0.007881782201
-0.007901745177
-0.007660183017
-0.007086910996
-0.006159049724
-0.004943299272
-0.003604422221
-0.00241349598
-0.001714084046
-0.001842774987
-0.0030145894
-0.005368021126
-0.008661811203
-0.009434803359
-0.01008113595
-0.01059800462
-0.01091024285
-0.01132563978
-0.0118755154
-0.01251088382
-0.01311925261
-0.01354740844
-0.01362297542
-0.01318209357
-0.01212073429
-0.01042763865
-0.008256174121
-0.005955953287
-0.004061538102
-0.00318980937
-0.00384271274
-0.006426106816
-0.01049129067
-0.01431656174
-0.01487555159
-0.01542253949
-0.01588177963
-0.01658960988
-0.01757973165
-0.01878658245
-0.0200587069
-0.02117719
-0.02187324094
-0.02185701646
-0.02087189721
-0.01877155636
-0.01561973433
-0.01179471556
-0.008036987939
-0.005359555534
-0.004759819911
-0.00718084131
-0.01197891915
-0.02015405435
-0.02060428554
-0.02117447522
-0.02179647442
-0.02285182005
-0.02439006475
-0.02633892199
-0.02851329944
-0.03062723569
-0.03230316684
-0.03309492104
-0.03254036891
-0.03028214892
-0.02617835448
-0.02052455984
-0.01420360152
-0.008691222818
-0.005726302102
-0.007218952134
-0.01246609801
-0.02685606625
-0.0271618312
-0.02770227001
-0.02842268144
-0.02978887067
-0.03188879473
-0.03465856661
-0.03788931885
-0.04123359718
-0.04420471864
-0.04618779087
-0.04647844065
-0.0444627448
-0.03965970077
-0.0321206982
-0.02269843544
-0.01326625639
-0.006485628303
-0.005808327222
-0.01076492501
-0.0343344148
-0.03441783069
-0.03478917383
-0.03540425406
-0.03689155512
-0.03940969288
-0.04291972151
-0.04719734447
-0.05183973049
-0.0562580416
-0.05967939842
-0.06119056509
-0.05977919682
-0.05465545316
-0.04544074209
-0.03269939639
-0.01845278946
-0.00624560887
-0.001673661716
-0.004873301797
-0.04260954928
-0.04227912757
-0.04219535345
-0.04229567338
-0.0435134119
-0.04611609467
-0.05009929671
-0.05522005624
-0.06101473158
-0.06679584127
-0.07163978946
-0.074412697
-0.07383226801
-0.0686746001
-0.05807167559
-0.04206155979
-0.02243977951
-0.003256956187
0.0073473293
0.008341717418
-0.05201005231
-0.0507607138
-0.04967754453
-0.04857864572
-0.04892650681
-0.05111992585
-0.05517261068
-0.06079595022
-0.06743525216
-0.07428961937
-0.08028250321
-0.08407596752
-0.08413041488
-0.07883731696
-0.06684259417
-0.04752321328
-0.02212724913
0.005502009133
0.02471560655
0.03352763912
-0.06365565455
-0.0601889607
-0.05709711521
-0.05376417082
-0.05246531417
-0.05367997828
-0.05736481487
-0.06313800996
-0.07026247527
-0.077800938
-0.08449263355
-0.08878585882
-0.08889819627
-0.08283948777
-0.06885058855
-0.04562062173
-0.01375130729
0.02441712475
0.05553987671
0.07735611294
-0.08018622059
-0.07107478733
-0.06412105571
-0.05716536967
-0.05343153387
-0.0532156175
-0.05625937038
-0.06191439034
-0.06925953149
-0.07711751961
-0.08401278814
-0.08815225629
-0.08748070287
-0.07965644396
-0.06247930942
-0.03405023658
0.005565137083
0.05859433763
0.1058233686
0.1480680749
-0.1105076233
-0.08585493999
-0.07160692146
-0.05897196807
-0.05191437945
-0.04988412795
-0.05210393571
-0.05751008709
-0.06486090891
-0.07270979035
-0.07934121328
-0.08271452076
-0.08052026486
-0.06988718355
-0.04823226711
-0.01272231636
0.03823645224
0.107132423
0.1779789862
0.2564768238
-0.1684378171
-0.09990911546
-0.07500922584
-0.05479886065
-0.04462001087
-0.04158654562
-0.04371917568
-0.04938310343
-0.05701875822
-0.06497232778
-0.07136319911
-0.07398148006
-0.07013028955
-0.05701378747
-0.03102840648
0.01192962012
0.07559980048
0.1664045659
0.2761623442
0.4377046094
-0.3984291023
-0.1381002705
-0.07497139173
-0.04708941602
-0.03355049334
-0.03003130075
-0.03280350569
-0.03926631672
-0.04756010512
-0.05594065743
-0.06250167477
-0.06503074939
-0.06099599744
-0.04696980756
-0.01875661505
0.02993575223
0.1069559977
0.2334275825
0.4198805367
0.7800237195
)


// ************************************************************************* //
