/*--------------------------------*- C++ -*----------------------------------*\
  =========                 |
  \\      /  F ield         | OpenFOAM: The Open Source CFD Toolbox
   \\    /   O peration     | Website:  https://openfoam.org
    \\  /    A nd           | Version:  13
     \\/     M anipulation  |
\*---------------------------------------------------------------------------*/
FoamFile
{
    format      ascii;
    class       vectorField;
    location    "25.82";
    object      U_all;
}
// * * * * * * * * * * * * * * * * * * * * * * * * * * * * * * * * * * * * * //


400
(
(1.09096353e-05 -3.788904674e-05 0)
(-0.0006661843555 0.000413022989 -1.545264568e-23)
(-0.002185346023 0.0009203650138 0)
(-0.004047725342 0.001312737127 0)
(-0.005971685669 0.001535014117 6.83613096e-25)
(-0.007762536456 0.001569795154 4.152134421e-24)
(-0.009284249476 0.001423516664 -7.343489427e-24)
(-0.01043561517 0.001119687914 7.561314036e-24)
(-0.01113647883 0.0006960627197 -2.097749073e-25)
(-0.01132678904 0.0002030744532 -3.998264539e-24)
(-0.01097148519 -0.0003002214317 5.807452362e-24)
(-0.01007209428 -0.0007474934116 -5.932640422e-23)
(-0.008679713002 -0.00107553506 -6.555889988e-23)
(-0.006902757419 -0.001233019033 -7.78776143e-23)
(-0.004910709872 -0.001192621845 4.575766871e-24)
(-0.002927257633 -0.0009619168122 -4.140198028e-24)
(-0.00120535838 -0.0005912220107 -2.00025868e-22)
(-1.913295718e-05 -0.0001699034238 0)
(0.0005181076144 0.000172060814 1.516044536e-25)
(0.000222739433 0.0003059625893 -2.636612073e-24)
(-0.0002633996686 0.0008288630578 1.387682167e-25)
(-0.002703263123 0.003383691368 1.554958256e-23)
(-0.006907057874 0.00560427657 1.545875667e-25)
(-0.01195189802 0.007007937011 -8.476471934e-25)
(-0.01713441958 0.007553493411 1.159348688e-24)
(-0.02197455078 0.007293937987 1.303876372e-23)
(-0.02610981944 0.006321682071 1.418038049e-24)
(-0.02926462006 0.004754052239 -7.312279971e-24)
(-0.03122567533 0.002737094835 1.0167608e-23)
(-0.03184098687 0.0004524346661 4.514179336e-24)
(-0.0310266799 -0.001884034677 -6.32305713e-24)
(-0.02879236913 -0.004022857941 2.96080093e-24)
(-0.02527075826 -0.005708148935 3.89717757e-23)
(-0.0207315113 -0.006707202643 -1.955850534e-24)
(-0.015589371 -0.006853964925 3.756713189e-24)
(-0.01038503299 -0.006097347816 -9.748785943e-23)
(-0.005730279279 -0.004546143351 9.645592584e-23)
(-0.002233423417 -0.002507444315 -3.97416819e-25)
(-0.0001818271435 -0.0005024403777 4.074397343e-25)
(8.342755907e-05 0.0006098719001 0)
(-0.0004188165044 0.002934948044 -2.914950606e-25)
(-0.004647715624 0.008803651689 1.708063803e-23)
(-0.01137152458 0.01323988377 -8.225698156e-24)
(-0.01932653183 0.01579141005 -2.065817739e-25)
(-0.02747303596 0.01652936102 2.029450601e-25)
(-0.03511642246 0.01564384151 7.760364447e-27)
(-0.04171186062 0.01335952395 -1.249640909e-24)
(-0.04683398824 0.009919485306 -4.570028332e-25)
(-0.05014810913 0.005602338614 -1.064656618e-23)
(-0.05141057443 0.0007445219386 0)
(-0.05047630905 -0.004241503901 0)
(-0.04733563802 -0.008886771839 2.672714738e-23)
(-0.04215810633 -0.01268126992 2.814642758e-23)
(-0.03531348311 -0.01513553366 -1.647272807e-24)
(-0.02738935412 -0.01586142753 4.84967136e-23)
(-0.01916970401 -0.01467298411 9.426854992e-23)
(-0.01156075006 -0.01169339618 3.983660457e-23)
(-0.005465376933 -0.007450690449 4.16803578e-25)
(-0.00145111491 -0.002936105457 1.060226865e-25)
(-9.072747501e-05 0.0002257983836 0)
(-0.0005024445831 0.006045098111 -4.254610601e-23)
(-0.006402480371 0.01637007347 -1.698277686e-23)
(-0.01553438464 0.02355836217 8.152573507e-24)
(-0.02627804411 0.02744051784 0)
(-0.03728596154 0.02831992079 0)
(-0.0476884887 0.02658675096 0)
(-0.05679444437 0.02263044902 -4.565283104e-26)
(-0.06405145501 0.01683562465 -2.119667215e-24)
(-0.0690083413 0.009622038386 0)
(-0.07130583434 0.001491233677 1.63956109e-24)
(-0.07070622853 -0.006936023192 2.805393301e-25)
(-0.06712831754 -0.01492946728 -2.813248336e-25)
(-0.06069728575 -0.02166640402 0)
(-0.05180609026 -0.02631512655 4.136975117e-23)
(-0.0411488738 -0.0281598347 -4.685273634e-23)
(-0.02971901306 -0.0267730076 -2.766033031e-23)
(-0.0187367785 -0.02221482454 -3.968934342e-23)
(-0.009487859766 -0.01521900075 7.795581977e-25)
(-0.002976842975 -0.007298189059 9.781372469e-23)
(-0.0002318751498 -0.0008662439927 0)
(-0.00053158965 0.01009459453 4.275306345e-23)
(-0.007983259395 0.0259511107 4.775837031e-25)
(-0.01939607477 0.03642732702 -4.666758563e-25)
(-0.0328224947 0.04185353012 0)
(-0.04664504191 0.04289320797 7.773255155e-25)
(-0.05984998869 0.04019929818 -7.665475997e-25)
(-0.07163023773 0.03434630603 3.669079374e-23)
(-0.08132458154 0.0258559507 1.844827436e-23)
(-0.0883629497 0.01527276166 6.229557931e-24)
(-0.09225163393 0.003246399205 -1.641471194e-24)
(-0.09260086066 -0.009407139395 0)
(-0.08917285515 -0.02167372298 4.376237896e-25)
(-0.08195742636 -0.03236614088 1.010957939e-23)
(-0.07126689401 -0.0402110788 -4.353245619e-23)
(-0.05781867417 -0.04401908272 1.935334546e-24)
(-0.0427847648 -0.04294710611 4.225363527e-23)
(-0.02775384833 -0.03683259652 -3.854755095e-25)
(-0.01455029787 -0.0265267121 0)
(-0.004859361299 -0.01408439082 5.436305977e-23)
(-0.0003641373296 -0.002846991557 -2.564111719e-22)
(-0.0005271988714 0.01499865282 9.835333475e-23)
(-0.009377552328 0.03738867819 -4.902999797e-25)
(-0.02288093478 0.05170013852 0)
(-0.03882895309 0.05893952666 0)
(-0.05538450845 0.06025350599 -8.728807082e-23)
(-0.07142619167 0.05661705433 -8.495788809e-23)
(-0.0860635463 0.04880017965 -4.064017173e-23)
(-0.09854756166 0.0374388567 -1.502705467e-23)
(-0.1081910584 0.02315951069 -5.360669328e-24)
(-0.1143409594 0.006709979018 -8.170059699e-24)
(-0.1164011984 -0.0109320323 6.595799353e-24)
(-0.113890533 -0.02848805989 8.816822941e-24)
(-0.1065458195 -0.04436870245 -1.892161614e-23)
(-0.09446558543 -0.05675137778 4.565989959e-24)
(-0.07826660602 -0.0637810236 0)
(-0.05922751565 -0.06393319183 -1.577135503e-23)
(-0.03933888955 -0.05653678143 -2.29382614e-26)
(-0.02114139836 -0.04235720558 0)
(-0.007318534615 -0.0239819083 -1.519713178e-22)
(-0.0005215993269 -0.00592551407 6.054293726e-22)
(-0.0004990658528 0.02064490596 -9.768344355e-23)
(-0.01052913703 0.05045235842 2.831301288e-22)
(-0.02582867343 0.06912241664 1.526516033e-22)
(-0.04401987933 0.07848963114 3.618206873e-24)
(-0.06310529354 0.0802919143 -7.318938596e-23)
(-0.08190141598 0.07587794427 9.040025041e-23)
(-0.09947455683 0.06621498264 -3.589090213e-24)
(-0.1150193247 0.0520157178 -1.728554052e-24)
(-0.127748295 0.03392311422 2.523228549e-24)
(-0.1368435545 0.0127026372 7.37800748e-24)
(-0.141467392 -0.01058678198 -6.495839325e-24)
(-0.1408213278 -0.03445856022 -9.777264786e-24)
(-0.1342713951 -0.05692553373 -3.261694078e-23)
(-0.1215422207 -0.07553066815 -3.654757299e-23)
(-0.1029649542 -0.08754002996 5.632267517e-25)
(-0.07976194417 -0.09038969269 0)
(-0.05426564601 -0.08244315202 0)
(-0.02987096176 -0.06397599124 -2.9045655e-24)
(-0.01066261631 -0.03798724595 2.968981495e-24)
(-0.0007350712259 -0.01050075881 1.027831647e-22)
(-0.0004479096872 0.02687146889 0)
(-0.01134890304 0.06480510146 2.001901063e-22)
(-0.02801518298 0.08829289752 8.961852104e-23)
(-0.04799719753 0.1001199388 0)
(-0.06920408332 0.1027042288 1.569522846e-22)
(-0.09044128411 0.09781279898 0)
(-0.1107802907 0.0866087048 -1.428154415e-22)
(-0.1294061694 0.06983798563 6.514239812e-24)
(-0.1454737358 0.0480816895 0)
(-0.1580316439 0.02201782512 0)
(-0.16600981 -0.007333308595 -1.374032763e-24)
(-0.1682637306 -0.03838649515 -9.31297535e-25)
(-0.163703261 -0.06883722956 1.491481809e-22)
(-0.1515179909 -0.09557979603 -4.704492939e-23)
(-0.131510998 -0.1148267164 -2.55946349e-24)
(-0.1045576701 -0.1225672926 1.533246987e-24)
(-0.07309214192 -0.1155491595 -1.557432866e-24)
(-0.04134943614 -0.09282920978 0)
(-0.01525200512 -0.05740658566 3.202992423e-24)
(-0.001044281462 -0.01714686823 -1.012700061e-21)
(-0.0003744716503 0.03346183705 0)
(-0.01174981769 0.07998633929 -1.127960651e-22)
(-0.02920644932 0.108635336 -6.190362218e-22)
(-0.05031635634 0.123219328 -3.754884578e-22)
(-0.07296160952 0.1269057866 0)
(-0.09598760417 0.1219221494 4.11897378e-22)
(-0.118524986 0.1096321962 1.260718359e-22)
(-0.1398119994 0.09078069274 -5.581036003e-24)
(-0.1590193215 0.06581314727 5.553412874e-24)
(-0.1751431631 0.03520902217 0)
(-0.1869530365 -0.0001955830646 2.911756914e-23)
(-0.1930143534 -0.03889551684 4.69496598e-24)
(-0.191778205 -0.07843613472 -1.07653873e-22)
(-0.1817848602 -0.115183247 8.001636002e-23)
(-0.1620547535 -0.1442563518 -2.419182079e-22)
(-0.1327043053 -0.159851261 0)
(-0.09577748003 -0.1563080326 0)
(-0.05601547847 -0.1302955693 0)
(-0.02147824417 -0.08380981945 0)
(-0.001500351954 -0.02665471396 5.571033168e-22)
(-0.0002874081519 0.04015946385 0)
(-0.01169347614 0.0954330147 -3.492614607e-22)
(-0.02924402259 0.1294032655 8.931928446e-22)
(-0.05060880081 0.1469254775 3.616770646e-22)
(-0.0736998269 0.1519705998 0)
(-0.09745020936 0.1472720806 -3.862101795e-22)
(-0.1211054326 0.1344162927 -3.174098909e-23)
(-0.1440307448 0.1141374022 3.332798784e-22)
(-0.1655124739 0.08669918222 1.769312665e-22)
(-0.1846229441 0.05229139911 -4.059788292e-23)
(-0.2001306567 0.01141832021 1.656773909e-23)
(-0.2104603315 -0.03471218751 -8.2642502e-24)
(-0.2137189709 -0.08376281809 3.371512768e-22)
(-0.2078197226 -0.1318722145 0)
(-0.1908221278 -0.173271794 2.420350833e-22)
(-0.1616320316 -0.2002553865 5.773041593e-24)
(-0.1211650266 -0.2040084389 -5.859134731e-24)
(-0.07384907246 -0.1772089226 1.54787912e-22)
(-0.02971749872 -0.1188622513 -5.43373929e-24)
(-0.002179508168 -0.04005334293 0)
(-0.0002117506701 0.04671505891 0)
(-0.01125003835 0.1105466176 0)
(-0.02815621636 0.1497312526 -5.022315312e-22)
(-0.04874464841 0.1701471453 -1.880848014e-23)
(-0.07100058114 0.1766212805 2.038212249e-23)
(-0.09399409934 0.172448804 -2.01414671e-23)
(-0.1171429194 0.1594841125 -2.316693071e-23)
(-0.1400173913 0.1384785404 -3.0295439e-22)
(-0.1621323241 0.1095151805 6.698472505e-23)
(-0.1827953592 0.07245203513 4.512766024e-23)
(-0.2009830334 0.027350432 -4.577298417e-23)
(-0.2152265039 -0.0250849702 0)
(-0.223555656 -0.08298077994 -7.838135022e-23)
(-0.2234625654 -0.1427224095 0)
(-0.2120671787 -0.1981783257 -3.739207994e-22)
(-0.1867426092 -0.2400733667 5.24430222e-22)
(-0.1464430027 -0.2560733971 0)
(-0.09394502303 -0.2331175137 -1.493442515e-22)
(-0.04021966512 -0.1639589933 1.936980205e-22)
(-0.003201060962 -0.05860978637 -3.410961858e-22)
(-0.0002015823575 0.05297456959 0)
(-0.01067280309 0.1248141291 9.182320998e-22)
(-0.02628480004 0.1687382763 -2.440525818e-23)
(-0.04501151528 0.1916409445 9.192785964e-22)
(-0.06494648302 0.1992877146 -2.511919704e-23)
(-0.08536685538 0.1956066446 2.838653686e-23)
(-0.1059312084 0.1827857831 -2.812741484e-23)
(-0.1264931566 0.1616564877 -1.66080964e-23)
(-0.1469005316 0.1321754429 -5.259893689e-22)
(-0.1668467665 0.09389670419 -8.90606205e-24)
(-0.1857313223 0.04640691077 9.659606867e-24)
(-0.2024791996 -0.01023593806 3.312906696e-22)
(-0.215416408 -0.07499567164 -5.820386183e-22)
(-0.2220217199 -0.1450281564 0)
(-0.2188036679 -0.2146726381 8.886650345e-22)
(-0.2016258743 -0.2739979311 -4.940274188e-22)
(-0.1668637486 -0.3075773894 -1.572026035e-23)
(-0.1140216932 -0.2953776718 0)
(-0.05288456759 -0.2195776383 -1.88962348e-22)
(-0.004749150721 -0.08377175773 3.36002946e-22)
(-0.0003642478153 0.05902204331 1.550924147e-23)
(-0.01049607308 0.1379853089 -8.763674094e-22)
(-0.02441458153 0.1856765175 -1.157001316e-21)
(-0.04026825718 0.2101341789 -8.628468767e-22)
(-0.05630859234 0.2182307559 0)
(-0.0721501105 0.2146154856 3.513608608e-23)
(-0.08779398715 0.2018765342 -7.294461762e-23)
(-0.1034582611 0.1809989265 5.867565187e-23)
(-0.1194005609 0.1518991338 3.021192237e-22)
(-0.1357954838 0.1139154302 -1.12813807e-23)
(-0.1526106586 0.06621543562 0)
(-0.1694545663 0.008179018973 -3.603740981e-22)
(-0.185278373 -0.06015759541 7.515329516e-22)
(-0.1980469163 -0.1372720844 8.831344767e-22)
(-0.2043562966 -0.2189233014 -5.296288503e-22)
(-0.1990989223 -0.2959681586 5.162387568e-22)
(-0.1760611499 -0.3514039417 1.078052578e-23)
(-0.1300892198 -0.3584118223 -1.095364724e-23)
(-0.06688794914 -0.2843250147 -8.2205628e-23)
(-0.00708329184 -0.1169953055 0)
(-0.000909631417 0.06539950582 -1.911397704e-23)
(-0.0116763763 0.1502792368 -1.326909993e-21)
(-0.02388981264 0.2000625609 1.094183135e-21)
(-0.03601492498 0.2244178858 6.734640201e-22)
(-0.04657508252 0.2316551352 6.014369529e-22)
(-0.05577278733 0.2272362274 6.643662607e-22)
(-0.06411519701 0.2141751749 -4.458470062e-23)
(-0.07227863113 0.1936481006 -3.461191668e-22)
(-0.0809729562 0.1656024704 2.152075714e-22)
(-0.09087528878 0.1292712541 0)
(-0.1025581716 0.08353205147 0)
(-0.1163656084 0.02720183661 2.655312255e-22)
(-0.1321622065 -0.04061802832 8.194494797e-23)
(-0.1489282124 -0.1200106425 -2.82145521e-22)
(-0.1641309919 -0.2089277815 -5.411075472e-23)
(-0.1727897618 -0.3006968413 1.30197349e-22)
(-0.1670324668 -0.3793303259 -3.400235595e-22)
(-0.1365299048 -0.4136425224 -1.596274995e-23)
(-0.0801826427 -0.3538302442 8.209328311e-23)
(-0.01050761471 -0.159411907 -6.032602272e-22)
(-0.002260552273 0.07348820883 0)
(-0.01580409898 0.1626503435 2.145790388e-21)
(-0.02665163575 0.2117877474 0)
(-0.03422529336 0.2333915758 -1.351754699e-21)
(-0.03759650696 0.2377735878 6.184211683e-23)
(-0.03799989927 0.2312527104 -6.192818746e-22)
(-0.03668610372 0.2171879782 -4.756097783e-22)
(-0.03489409189 0.1968924112 8.300923684e-22)
(-0.033792282 0.1703340613 -1.885621539e-22)
(-0.03450272536 0.1367227034 0)
(-0.03811965245 0.09479793614 0)
(-0.04565372639 0.04304446201 2.410700862e-23)
(-0.05791164708 -0.02013602335 -6.007020278e-22)
(-0.07514930555 -0.09620469704 -4.309435384e-22)
(-0.09645468118 -0.1855538693 4.637747753e-22)
(-0.1183486752 -0.2853550629 -6.488457089e-22)
(-0.1332733223 -0.3838368601 9.119305692e-23)
(-0.1265361508 -0.4504339752 2.939895054e-23)
(-0.08899190419 -0.4198517698 5.660627746e-22)
(-0.01526919982 -0.2111709374 6.02123418e-22)
(-0.005180945782 0.08598014507 0)
(-0.02525606277 0.1766279326 1.465593709e-22)
(-0.03483536327 0.2205942075 -4.916983819e-23)
(-0.03640219653 0.2354835603 7.642654351e-22)
(-0.03018760387 0.2343382727 -7.005113337e-22)
(-0.01916916566 0.2241583042 4.746307318e-23)
(-0.005618921257 0.2083510662 -1.018586946e-22)
(0.008565576165 0.1881232909 -3.38976055e-22)
(0.02179470024 0.1633910266 2.062756718e-22)
(0.03262370247 0.1333248187 0)
(0.03958062853 0.09664190927 0)
(0.0411664164 0.0517419267 -2.902591194e-22)
(0.03578139187 -0.003253921657 0)
(0.02197871263 -0.0705821594 -5.512079839e-22)
(-0.001267614742 -0.1525722395 -1.492151748e-23)
(-0.03310702933 -0.2505938202 2.559627966e-23)
(-0.06909421986 -0.3599330282 2.202940074e-22)
(-0.09227948888 -0.4575413568 4.789198039e-24)
(-0.08718139499 -0.469811714 -5.789609911e-22)
(-0.0210313232 -0.2698964287 0)
(-0.01111633994 0.1085974705 0)
(-0.0424894732 0.1947146088 -8.848230951e-22)
(-0.04795641394 0.2258183886 -5.41091451e-22)
(-0.03919723357 0.2282119826 4.543698009e-22)
(-0.01878089566 0.2182311293 -1.710039275e-24)
(0.007661112944 0.2028205137 -4.5609056e-23)
(0.03667630653 0.1847608381 5.696485009e-22)
(0.06582610968 0.1647111595 -2.766801627e-23)
(0.09326735752 0.1423126999 -2.069714799e-22)
(0.117385307 0.1166278768 3.142124662e-23)
(0.1365425342 0.08641222144 -3.42583111e-23)
(0.1489635914 0.05017773212 -3.690516219e-23)
(0.1525246061 0.006160315072 3.205570094e-22)
(0.1449341144 -0.04796016887 6.119487593e-22)
(0.1235137461 -0.1153043485 -5.101067621e-22)
(0.08633349362 -0.2004188248 -1.615993049e-22)
(0.03198928385 -0.3067800867 1.531362522e-22)
(-0.02362238169 -0.4239831385 7.29374229e-23)
(-0.06492459841 -0.487160624 1.913302664e-21)
(-0.02509978135 -0.3291539622 2.955003973e-21)
(-0.02004678775 0.1460728951 -4.390134844e-23)
(-0.06416427294 0.2112954946 4.417307152e-23)
(-0.05070297804 0.2177295358 1.000168e-21)
(-0.01934222814 0.2014671425 -8.269108829e-24)
(0.02414277124 0.1809066002 0)
(0.07153876709 0.1606923504 4.363584699e-23)
(0.1190674497 0.1416487628 -2.273777338e-22)
(0.1644735671 0.1233176892 -9.027652715e-23)
(0.2062218473 0.1048115846 3.680613916e-23)
(0.2429611028 0.08507159223 -1.70160854e-23)
(0.2732177679 0.06296194598 3.429884316e-23)
(0.2952509449 0.03726359319 -6.592530725e-23)
(0.3066947853 0.006535802349 -9.303732599e-23)
(0.3049718743 -0.03087699294 1.517012354e-22)
(0.2863920327 -0.07786232236 0)
(0.2470555399 -0.1399296309 1.505539153e-22)
(0.1810911966 -0.2266297903 2.560016668e-22)
(0.09604373526 -0.3443892678 0)
(-0.006698008193 -0.4552207797 -3.675652326e-21)
(-0.01922414619 -0.3777535348 -2.892632998e-21)
(-0.02591946408 0.2276830407 -9.514157165e-22)
(-0.039983178 0.2238217637 -1.388957721e-22)
(0.03656128015 0.1810584379 -2.335531422e-22)
(0.1090498895 0.1451056045 -1.193713986e-22)
(0.1817182588 0.1172441103 -4.295722189e-23)
(0.2490077401 0.09627861088 9.782834716e-23)
(0.3100319255 0.08002470643 -1.408540736e-22)
(0.3646188912 0.06656788688 1.297131095e-22)
(0.4126230532 0.05449169023 -8.61984007e-23)
(0.4536228331 0.04270902002 1.132183544e-25)
(0.4867858112 0.03032319747 1.527703351e-23)
(0.5107433163 0.01652932797 7.99701948e-23)
(0.5236582438 0.0005368435729 -1.811085635e-22)
(0.5231786565 -0.01863341216 -1.617114399e-22)
(0.5052315006 -0.04286453094 -4.262774146e-23)
(0.465870916 -0.07633214943 0)
(0.3952692208 -0.1286088874 -1.846508411e-22)
(0.2916067817 -0.2208467951 8.148793724e-22)
(0.1197453148 -0.3525016767 1.631606666e-21)
(0.02670542311 -0.3775497686 2.172658379e-21)
(0.2142894952 0.1347447681 9.864936867e-22)
(0.2776312677 0.09870509397 0)
(0.4316593968 0.05810418008 -2.594277759e-22)
(0.530475007 0.03846264057 -1.741627064e-22)
(0.6016964483 0.02623415234 0)
(0.6571195221 0.0183191853 -6.008873349e-23)
(0.701520753 0.013135966 6.377753124e-23)
(0.7376034677 0.009542103049 -1.800085379e-23)
(0.7669359682 0.006804466498 2.885865318e-23)
(0.7902097969 0.004464772925 2.314956184e-23)
(0.8074547158 0.002221369592 0)
(0.8182614982 -0.0001500124696 -2.872960741e-23)
(0.8216495177 -0.002723782652 0)
(0.8162391562 -0.005712619151 2.738051642e-23)
(0.7991332025 -0.00961135368 1.421615348e-23)
(0.7679986229 -0.01500254323 -5.799472796e-23)
(0.7106556027 -0.02502521245 -2.535678889e-22)
(0.6235184154 -0.04204286928 -6.918125438e-22)
(0.4230091 -0.09182969657 0)
(0.2705674642 -0.1524021912 -2.119486184e-21)
)


// ************************************************************************* //
