/*--------------------------------*- C++ -*----------------------------------*\
  =========                 |
  \\      /  F ield         | OpenFOAM: The Open Source CFD Toolbox
   \\    /   O peration     | Website:  https://openfoam.org
    \\  /    A nd           | Version:  13
     \\/     M anipulation  |
\*---------------------------------------------------------------------------*/
FoamFile
{
    format      ascii;
    class       scalarField;
    location    "17";
    object      p_all;
}
// * * * * * * * * * * * * * * * * * * * * * * * * * * * * * * * * * * * * * //


400
(
1.200524082e-08
-0.0004562733934
-0.0009931626669
-0.001378414369
-0.001504080319
-0.001328487819
-0.0008360458581
-2.58169984e-05
0.001085076104
0.002450804836
0.003985630722
0.005559016364
0.007003795224
0.008140549952
0.008817368253
0.00895631203
0.008591960526
0.007888418334
0.007125539425
0.006622781681
0.0004601810428
-1.17426879e-05
-0.0004773776068
-0.000776763375
-0.0008527291651
-0.000682311463
-0.0002529223588
0.0004400342099
0.001387159327
0.002554545079
0.003873003641
0.005232999388
0.00649044765
0.007488419645
0.008092731725
0.008233723076
0.007939061482
0.007342456709
0.006663468034
0.006149836674
0.001017861783
0.0004197353461
-7.354388154e-05
-0.000348118636
-0.0004119285252
-0.0002706026562
8.255103846e-05
0.0006578306398
0.001458356033
0.002466934275
0.003632657993
0.004862476664
0.006023950154
0.006964059434
0.007544341326
0.007684018288
0.007393798163
0.006780802276
0.006022112972
0.005349928552
0.001397937868
0.0006237554857
3.368577664e-05
-0.0002772202959
-0.0003742825324
-0.0002915584472
-2.770330037e-05
0.0004358929974
0.001118982468
0.002025000524
0.003122637284
0.004331621175
0.005520051788
0.006520166739
0.007164928867
0.007337934651
0.007016664846
0.006283951301
0.005306832861
0.004363168523
0.001391829113
0.0004355675251
-0.0002755991801
-0.0006577704657
-0.0008245240618
-0.0008328895535
-0.0006826835935
-0.0003426601948
0.0002285303027
0.001060350603
0.002145857185
0.00341966685
0.004747004199
0.00593362441
0.006762883922
0.007055509327
0.006730848017
0.005838297122
0.004555621093
0.003252553415
0.0008301314936
-0.0002950170569
-0.00113193245
-0.001607400914
-0.001877307463
-0.002016114425
-0.002020046763
-0.001840318665
-0.001407761473
-0.0006584565153
0.0004355274831
0.001834128561
0.003406088907
0.004926736354
0.006110606039
0.006680995745
0.006457853074
0.005426901064
0.003778974187
0.002022707796
-0.0004338497996
-0.001706169747
-0.002667159605
-0.003255483327
-0.003666200742
-0.003987447702
-0.004208460146
-0.00425872532
-0.004034327916
-0.00342523008
-0.002351318062
-0.0008058733298
0.001102856184
0.003128111106
0.004901531628
0.006006312962
0.006097952187
0.005033906138
0.00299062313
0.0006704539826
-0.002523421991
-0.003916040026
-0.004997440677
-0.005719415698
-0.006315565199
-0.006886649673
-0.007414230689
-0.007804069606
-0.007911327258
-0.007566157218
-0.006612501307
-0.004963550123
-0.002666816639
3.775340724e-05
0.002700249922
0.00471991692
0.005495453919
0.004639740449
0.002233711908
-0.0007689688767
-0.005531909847
-0.007013476573
-0.008208734344
-0.009083373859
-0.009911920388
-0.01081044926
-0.01175609289
-0.01263266926
-0.01325124487
-0.01336948341
-0.01272848607
-0.01111770044
-0.008466404151
-0.004948932655
-0.001063118859
0.002380373879
0.004412405902
0.004218520692
0.001611862587
-0.002167302516
-0.009515267333
-0.01104954005
-0.01234326792
-0.01337623348
-0.01447112188
-0.01576718907
-0.01724523646
-0.01877384787
-0.02012208336
-0.02096763955
-0.02092511826
-0.01961277673
-0.01677088684
-0.01241534959
-0.007008259578
-0.001546284339
0.002535088888
0.003748351187
0.00133408341
-0.003223170036
-0.01448978639
-0.01603363736
-0.01738888228
-0.01854977013
-0.019903349
-0.02162709575
-0.02371853631
-0.02604229177
-0.02833339753
-0.03019038713
-0.03108809149
-0.03043629041
-0.02771501985
-0.02266667517
-0.01557818531
-0.007523594383
-0.0004329187795
0.003267461629
0.001790627654
-0.003334604024
-0.02044371864
-0.02194064938
-0.02327590038
-0.024462144
-0.02598391767
-0.02808169505
-0.03078626993
-0.03397106231
-0.03734808953
-0.04044512521
-0.04259920536
-0.04299896368
-0.04080224017
-0.03538160807
-0.02667236743
-0.01561855635
-0.004533771176
0.003026430065
0.003687698772
-0.001397769228
-0.02737594179
-0.02873680712
-0.02988544342
-0.03087123311
-0.03233952558
-0.03463013767
-0.03782275938
-0.04180721954
-0.04627929314
-0.05070540994
-0.05429634298
-0.05602514261
-0.05472615557
-0.04933008668
-0.03926671741
-0.02508165872
-0.009182818088
0.003764996824
0.008272596113
0.004490851477
-0.03538706289
-0.03643412525
-0.03706952718
-0.03743859506
-0.03845731941
-0.04060826697
-0.04402442272
-0.04860404352
-0.05401860045
-0.05967178555
-0.06465784202
-0.06775581826
-0.06750216091
-0.0623897731
-0.05126822666
-0.03404503239
-0.01279461732
0.007059117302
0.01764838359
0.01741198581
-0.04487472834
-0.04518888467
-0.04468066692
-0.04374286094
-0.04372280007
-0.04527018644
-0.04854292465
-0.05341062938
-0.05948726545
-0.06609023657
-0.07218989152
-0.0763848198
-0.07694893221
-0.07199304704
-0.05981904029
-0.03959000476
-0.01262156226
0.0155927715
0.03506251437
0.04187640512
-0.05687587495
-0.05547149233
-0.05261782761
-0.04931305515
-0.0475001301
-0.04792549998
-0.05067481396
-0.05551045076
-0.06192616213
-0.06910360748
-0.07585715682
-0.0805944577
-0.08134350586
-0.0758825684
-0.06205100917
-0.03831554558
-0.004983450117
0.03322670466
0.064998941
0.0834714066
-0.07364016371
-0.06836517613
-0.06083652666
-0.05363210054
-0.04920256321
-0.04805753633
-0.05000489489
-0.05457806677
-0.06106200961
-0.06844112809
-0.07533068858
-0.0799177859
-0.0799687751
-0.07292516807
-0.05617969779
-0.02754471464
0.0137690522
0.06464281913
0.1134812729
0.1491149473
-0.1021908347
-0.0862698989
-0.06890671848
-0.05570622025
-0.04797808418
-0.04508009279
-0.04620883081
-0.050511452
-0.0569687872
-0.06432291389
-0.07098365687
-0.0749026697
-0.07356519443
-0.06402782374
-0.04310245521
-0.007718013013
0.04444195206
0.1130240174
0.1893430257
0.2562190557
-0.1743833111
-0.1135366089
-0.07311463861
-0.05186031266
-0.04132017339
-0.03741812629
-0.03843175653
-0.04302385309
-0.04980864951
-0.05730505425
-0.06382838135
-0.06718509499
-0.06462420429
-0.05285076102
-0.0280150226
0.01434868667
0.07960969122
0.173793308
0.3013171375
0.4500371226
-0.3542725681
-0.153936659
-0.06975909594
-0.04267844682
-0.03145680597
-0.02743819817
-0.02897098178
-0.03437145193
-0.0419123924
-0.04995886645
-0.05672133595
-0.05999499422
-0.05703623568
-0.0444640901
-0.01780654291
0.02906618434
0.1058838612
0.2305275823
0.431981686
0.7332923639
)


// ************************************************************************* //
