/*--------------------------------*- C++ -*----------------------------------*\
  =========                 |
  \\      /  F ield         | OpenFOAM: The Open Source CFD Toolbox
   \\    /   O peration     | Website:  https://openfoam.org
    \\  /    A nd           | Version:  13
     \\/     M anipulation  |
\*---------------------------------------------------------------------------*/
FoamFile
{
    format      ascii;
    class       scalarField;
    location    "17";
    object      p_all;
}
// * * * * * * * * * * * * * * * * * * * * * * * * * * * * * * * * * * * * * //


400
(
7.757210238e-07
-0.0005453738938
-0.0008863529142
-0.001012858195
-0.000933189498
-0.0006797160344
-0.0002899431943
0.0002002146735
0.0007542669742
0.001331759347
0.001887104569
0.002367546392
0.002717762071
0.002884698759
0.002826819523
0.002526069129
0.002002768407
0.001313968007
0.0006561580665
6.101783654e-05
0.000587799016
7.762549989e-06
-0.0003548679801
-0.0004961888796
-0.0004646392274
-0.0002867636016
8.113413283e-06
0.0003907097569
0.0008295967835
0.001287541781
0.001724774401
0.002090212538
0.002333531102
0.002407395354
0.002277920634
0.001936267545
0.001409056552
0.0007611966855
0.0001646235513
-0.0004974036652
0.0009509817931
0.0003079991255
-9.206016436e-05
-0.0002373881859
-0.0002302848886
-0.0001007640119
0.0001271345532
0.0004320667467
0.0007902745064
0.001169903145
0.001538737624
0.001843174796
0.002033208014
0.002060138984
0.00188882707
0.001509397505
0.0009457186397
0.0002542149752
-0.0004431900656
-0.001279172489
0.000974080642
0.0002574879346
-0.0001914895781
-0.0003427324343
-0.0003508379353
-0.00025256671
-6.862170315e-05
0.0001883163644
0.0005046399213
0.0008599888175
0.001213587558
0.00152219514
0.001725180747
0.001762085912
0.001584071598
0.001167726758
0.0005247918859
-0.0002981042177
-0.001212108253
-0.00236131124
0.0004787726943
-0.000285146532
-0.0007627404945
-0.0009132682873
-0.0009328793129
-0.0008628202605
-0.0007181750839
-0.0004995204122
-0.0002066687731
0.0001510428546
0.0005432250827
0.0009216135842
0.001215091088
0.001342876117
0.001228642275
0.0008192325403
0.0001005732112
-0.0008953453171
-0.002103706827
-0.003630243114
-0.0006864388196
-0.001465779566
-0.001953493683
-0.002103195753
-0.002144227335
-0.002118791057
-0.002032144529
-0.001867272773
-0.001603105128
-0.001229358946
-0.0007616106678
-0.0002443789311
0.0002398228811
0.0005813296938
0.0006584097559
0.0003630814492
-0.0003701690449
-0.001539566664
-0.003108472117
-0.005113320217
-0.002658742975
-0.003419246521
-0.003909772936
-0.004073569271
-0.004168743686
-0.004235084984
-0.004263105809
-0.004211065244
-0.004026779628
-0.003666684368
-0.003116366011
-0.002401574351
-0.001608116946
-0.0008781812109
-0.0003997504157
-0.0003735186652
-0.0009624291413
-0.002233457049
-0.004203646084
-0.006796510494
-0.005547206893
-0.006261282271
-0.006758253326
-0.006970313521
-0.007180910777
-0.007425267248
-0.007675018413
-0.00785613767
-0.00787258355
-0.007628290432
-0.007053359244
-0.006124838738
-0.004909498907
-0.00357179508
-0.002382371487
-0.001684259146
-0.001813519928
-0.002984806328
-0.005336489649
-0.008627440351
-0.009421366321
-0.01006732204
-0.01058291102
-0.01089288104
-0.011304762
-0.01185011549
-0.01248040549
-0.0130836902
-0.01350730989
-0.01357937081
-0.01313631793
-0.01207450488
-0.01038246532
-0.008213347848
-0.0059162473
-0.004024989434
-0.003155615367
-0.003809359671
-0.006391697719
-0.01045423566
-0.01429623991
-0.01485538898
-0.01540115197
-0.01585772736
-0.01656129364
-0.01754588402
-0.01874650333
-0.02001237916
-0.02112528362
-0.02181704575
-0.02179828325
-0.02081266637
-0.01871389251
-0.01556547416
-0.01174515111
-0.007992564965
-0.005319627646
-0.004722637694
-0.00714387351
-0.01193996467
-0.02012668308
-0.0205776411
-0.02114673631
-0.02176579595
-0.02281629147
-0.02434818073
-0.02628985616
-0.02845704697
-0.03056460672
-0.03223570127
-0.03302468643
-0.03246977071
-0.03021357856
-0.02611396051
-0.02046599007
-0.01415171649
-0.008645765153
-0.005685644784
-0.007180258472
-0.01242664126
-0.02682221858
-0.0271293038
-0.02766895103
-0.02838643839
-0.02974755428
-0.03184070061
-0.03460277601
-0.03782589666
-0.04116354809
-0.04412987987
-0.04611055653
-0.04640168125
-0.04438834507
-0.03958996079
-0.03205723352
-0.02264221972
-0.01321743338
-0.006443066966
-0.005769509021
-0.01072706989
-0.03429539503
-0.03438073693
-0.03475185177
-0.03536445673
-0.03684697056
-0.03935843546
-0.04286078616
-0.04713091969
-0.05176705481
-0.05618132766
-0.05960131946
-0.06111360386
-0.05970618239
-0.05458781148
-0.04537945656
-0.03264492521
-0.01840526777
-0.006204425139
-0.001637305445
-0.004839756346
-0.04256729606
-0.04223937607
-0.04215623403
-0.04225502291
-0.04346879151
-0.0460653894
-0.05004134059
-0.05515520738
-0.06094441597
-0.06672270668
-0.07156692306
-0.07434296593
-0.07376792084
-0.06861673001
-0.05802041227
-0.04201628669
-0.02239996928
-0.003222015867
0.007377682768
0.008368052558
-0.05196699131
-0.05072066667
-0.04963925874
-0.04854021266
-0.04888531419
-0.05107348584
-0.055119322
-0.0607364941
-0.06737093413
-0.07422362704
-0.08021833175
-0.0840168121
-0.08407868309
-0.07879370177
-0.06680654202
-0.04749280564
-0.02210094654
0.005525371235
0.02473609952
0.03354421294
-0.06361458013
-0.06015133161
-0.05706254512
-0.05373105078
-0.05243069845
-0.05364074044
-0.05731804732
-0.06308706974
-0.07020597049
-0.0777433142
-0.08443787794
-0.08873764414
-0.08885994633
-0.0828103636
-0.06883040706
-0.04560652255
-0.01374154892
0.02442616183
0.05554781269
0.07736181166
-0.08015019686
-0.07104255797
-0.0640932367
-0.05714044949
-0.05340599749
-0.05318560759
-0.05622242035
-0.06187062679
-0.0692106803
-0.07706746617
-0.08396577813
-0.08811217739
-0.08744964578
-0.07963785631
-0.06247128245
-0.03405018202
0.005556449315
0.0585956765
0.1058200859
0.1480639374
-0.1104791621
-0.0858304936
-0.07158807643
-0.05895670048
-0.05189888514
-0.04986336973
-0.05207548161
-0.05747385192
-0.06481896753
-0.07266602787
-0.07930018515
-0.08268060445
-0.08049779496
-0.06987495781
-0.04823079517
-0.0127293073
0.03822409022
0.1071207549
0.1779671818
0.256464471
-0.1684164992
-0.09989112627
-0.07499792718
-0.05479149447
-0.0446118686
-0.04157286515
-0.04369730352
-0.04935289523
-0.05698221234
-0.06493314011
-0.07132572532
-0.07394973571
-0.07010713818
-0.05700285112
-0.03102818204
0.01192128451
0.07558591191
0.1663890903
0.2761464991
0.4376897093
-0.3984082736
-0.1380839003
-0.07496215932
-0.04708487373
-0.03354560394
-0.03002122755
-0.03278543203
-0.03923987779
-0.04752703689
-0.05590432902
-0.06246621923
-0.06500020376
-0.06097347025
-0.0469575707
-0.01875432161
0.02992975872
0.1069443093
0.2334135119
0.4198658663
0.7800096025
)


// ************************************************************************* //
