/*--------------------------------*- C++ -*----------------------------------*\
  =========                 |
  \\      /  F ield         | OpenFOAM: The Open Source CFD Toolbox
   \\    /   O peration     | Website:  https://openfoam.org
    \\  /    A nd           | Version:  13
     \\/     M anipulation  |
\*---------------------------------------------------------------------------*/
FoamFile
{
    format      ascii;
    class       surfaceScalarField;
    location    "17";
    object      phi;
}
// * * * * * * * * * * * * * * * * * * * * * * * * * * * * * * * * * * * * * //

dimensions      [0 3 -1 0 0 0 0];

internalField   nonuniform List<scalar> 
760
(
-1.32207832e-05
1.321221043e-05
-7.194432374e-05
5.87236153e-05
-0.0001618689424
8.99246062e-05
-0.0002648656959
0.000102996582
-0.0003677345629
0.000102868803
-0.0004608675153
9.313290448e-05
-0.0005370202662
7.615267659e-05
-0.0005904653008
5.344498372e-05
-0.0006167368568
2.62715465e-05
-0.0006128732013
-3.863662028e-06
-0.000577848757
-3.502447027e-05
-0.00051337381
-6.44749717e-05
-0.00042435376
-8.902004115e-05
-0.0003191396289
-0.0001052140853
-0.0002092248612
-0.0001099147088
-0.0001082369472
-0.0001009878646
-3.006513107e-05
-7.81717848e-05
1.402587584e-05
-4.409099037e-05
2.18425257e-05
-7.81662861e-06
2.184254166e-05
-6.860522987e-05
8.181747967e-05
-0.0002453968867
0.0002355150006
-0.0004926914863
0.0003372192193
-0.0007710452108
0.0003813504845
-0.001048741393
0.0003805651519
-0.001300968573
0.0003453600505
-0.001508299994
0.0002834840098
-0.001655429306
0.0002005743152
-0.001730758586
0.0001016009037
-0.001727006073
-7.616154774e-06
-0.001641800693
-0.0001202299222
-0.001479751299
-0.000226524482
-0.001253145726
-0.0003156257279
-0.0009824949767
-0.0003758649163
-0.0006957352522
-0.0003966744831
-0.0004256282381
-0.000371094915
-0.0002050691576
-0.0002987309071
-5.993441061e-05
-0.0001892257951
-5.578128916e-07
-6.719330539e-05
2.128474041e-05
-0.0001227211497
0.0002045386276
-0.0004142495552
0.0005270431242
-0.0008072647407
0.0007302344024
-0.001245022828
0.0008191085608
-0.001681814893
0.0008173571679
-0.002080987117
0.0007445322028
-0.00241308805
0.0006155849042
-0.002654462075
0.0004419483403
-0.002786857759
0.0002339965863
-0.00279845513
3.981198865e-06
-0.002684329066
-0.000234355984
-0.002449925082
-0.0004609284397
-0.00211177033
-0.0006537804411
-0.001698640954
-0.0007889942582
-0.001250719027
-0.0008445963874
-0.000816166117
-0.0008056478164
-0.000444413537
-0.0006704834811
-0.0001762147211
-0.0004574246119
-3.22339475e-05
-0.0002111741209
-1.094920668e-05
-0.0001717609478
0.0003762996412
-0.000571518893
0.0009268011317
-0.001103986681
0.001262702293
-0.001695051851
0.001410173635
-0.002286662054
0.001408967274
-0.002832511736
0.001290381903
-0.003294874627
0.001077947861
-0.003642599034
0.0007896727633
-0.003850563667
0.0004419611616
-0.003900241928
5.365937441e-05
-0.003782607379
-0.0003519905992
-0.003499526668
-0.0007440091756
-0.003067564623
-0.001085742483
-0.002519788101
-0.001336770772
-0.001906010611
-0.00145837388
-0.001289685654
-0.001421972794
-0.0007401369304
-0.001220032223
-0.0003200499056
-0.0008775116346
-7.10710908e-05
-0.0004601529654
-8.202030774e-05
-0.0002166240568
0.0005929237639
-0.0007175403063
0.001427717414
-0.001383214944
0.00192837695
-0.002123463673
0.00215042226
-0.002869560452
0.00215506399
-0.003567393674
0.001988215176
-0.004172426632
0.001682980882
-0.004646562979
0.001263809127
-0.004957013424
0.0007524115831
-0.005076977707
0.0001736236242
-0.004988416112
-0.0004405522182
-0.004685267834
-0.001047157458
-0.004178483675
-0.00159252663
-0.003500372253
-0.002014882181
-0.00270749346
-0.002251252671
-0.001879628928
-0.002249837337
-0.001112141798
-0.001987519366
-0.0005003588845
-0.001489294548
-0.0001190403684
-0.0008414715149
-0.0002010606924
-0.0002569223456
0.0008498461639
-0.0008498996862
0.002020694618
-0.001639579435
0.002718056686
-0.002522482235
0.003033325096
-0.003421535404
0.00305411719
-0.004276905305
0.002843585117
-0.005038859455
0.002444935036
-0.005663082812
0.001888032459
-0.006108552151
0.001197880901
-0.006337841627
0.0004029130959
-0.006320073607
-0.0004583202289
-0.006035364505
-0.001331866541
-0.005482118362
-0.002145772749
-0.004684873559
-0.002812126963
-0.003701826861
-0.003234299356
-0.002628497858
-0.003323166331
-0.001592643105
-0.003023374112
-0.0007356706835
-0.002346266962
-0.0001819445641
-0.001395197666
-0.0003830052833
-0.0002907382128
0.001140584393
-0.0009626713167
0.002692627561
-0.001861407418
0.003616792794
-0.002873995536
0.004045913339
-0.003917979492
0.004098101203
-0.004930346095
0.003855951737
-0.005858298358
0.003372887277
-0.006652755632
0.002682489704
-0.007264839501
0.001809964755
-0.007645329989
0.0007834035918
-0.007747427594
-0.0003562225974
-0.007531969946
-0.001547324149
-0.006977042477
-0.00270070018
-0.00608990064
-0.003699268768
-0.004921040239
-0.004403159729
-0.00357615079
-0.004668055748
-0.00221834612
-0.004381178752
-0.001049880977
-0.003514732087
-0.0002682167277
-0.002176861939
-0.0006512220399
-0.0003155685935
0.00145615302
-0.001047422098
0.003424481052
-0.002032009852
0.004601380559
-0.003151075061
0.005164978654
-0.004320040644
0.005267066799
-0.005475637483
0.005011548576
-0.006564811272
0.004462061067
-0.007536339036
0.003654017478
-0.008335633785
0.002609259519
-0.008902826833
0.00135059666
-0.009174649962
-8.43994345e-05
-0.00908926032
-0.001632713747
-0.008597493648
-0.003192466806
-0.007678019115
-0.004618743253
-0.006359024211
-0.005722154584
-0.004742300909
-0.006284778997
-0.003020489734
-0.00610298988
-0.001468401706
-0.005066820086
-0.0003879218034
-0.003257341847
-0.001039143854
-0.0003288983055
0.001785051374
-0.001095421337
0.004191004182
-0.002133074636
0.005639033829
-0.003322275664
0.006354179741
-0.004579495709
0.006524286823
-0.00584427231
0.006276325178
-0.007066705652
0.005684494441
-0.008197393128
0.004784705002
-0.009180476598
0.003592343033
-0.009949966797
0.002120086895
-0.01042918115
0.0003948149451
-0.01053558829
-0.001526306577
-0.01018878272
-0.003539272353
-0.009328446586
-0.005479079336
-0.007941819505
-0.007108781604
-0.006102175346
-0.008124423093
-0.004010399158
-0.008194766012
-0.002013274612
-0.007063944597
-0.0005524196615
-0.004718196784
-0.001591563499
-0.0003296393298
0.002114690711
-0.001101112333
0.004962477289
-0.00215019145
0.006688112869
-0.003359103285
0.00756309163
-0.004648134398
0.007813317941
-0.005962597805
0.007590788618
-0.007259511653
0.006981408345
-0.008496347039
0.00602154044
-0.009622589834
0.004718585876
-0.010574098
0.003071595096
-0.0112700927
0.001090809678
-0.01161370765
-0.001182691607
-0.01149730377
-0.003655676223
-0.01081640374
-0.006159979341
-0.009499235379
-0.00842594991
-0.007557429197
-0.01006622921
-0.005158541162
-0.01059365397
-0.002694795826
-0.009527689885
-0.0007737346229
-0.006639257955
-0.002365298089
-0.0003199554699
0.002434646121
-0.001066629906
0.005709151814
-0.00208015774
0.007701640609
-0.003246251071
0.00872918504
-0.004491434518
0.009058501438
-0.00576974513
0.008869099297
-0.007049029248
0.008260692534
-0.008299200791
0.007271712026
-0.009482985396
0.005902370508
-0.01054870143
0.004137311156
-0.01142438661
0.001966494877
-0.01201288804
-0.0005941901615
-0.01219235701
-0.003476207249
-0.01181930323
-0.006533033119
-0.01075350137
-0.009491751764
-0.00891181837
-0.01190791218
-0.006369168392
-0.01313630389
-0.00349785087
-0.01239900736
-0.00106275008
-0.009074358705
-0.003428048146
-0.0003076154851
0.002742261507
-0.001007109644
0.006408646096
-0.001939152115
0.008633683007
-0.002992901483
0.009782934513
-0.004103985368
0.0101695854
-0.005238800194
0.01000391419
-0.006380197217
0.009402089635
-0.007515910879
0.008407425745
-0.008629421459
0.007015881125
-0.009692143019
0.005200032744
-0.01065552044
0.002929872295
-0.01143986069
0.0001901501027
-0.01193139378
-0.002984674144
-0.01196634403
-0.006498082862
-0.01134435753
-0.01011373827
-0.009868863587
-0.01338340612
-0.007459524392
-0.01554564304
-0.004363180197
-0.01549535152
-0.001425218872
-0.01201231998
-0.004853267025
-0.0003093105647
0.003051571966
-0.0009566529605
0.007055988662
-0.001770337346
0.009447367353
-0.002641949885
0.01065454717
-0.003521464821
0.01104910043
-0.004393513419
0.01087596285
-0.005261054251
0.01026963053
-0.006134350807
0.009280722371
-0.007022966135
0.007904496519
-0.007928882707
0.006105949383
-0.008837881219
0.00383887082
-0.009709712177
0.001061981044
-0.01045577359
-0.002238612739
-0.0109283824
-0.006025474056
-0.01089821599
-0.01014390468
-0.01006684417
-0.01421477796
-0.008158116801
-0.0174543704
-0.005167670346
-0.01848579799
-0.001854199958
-0.01532579033
-0.006707467055
-0.0003557991625
0.00340737103
-0.0009749039985
0.007675093687
-0.001648827394
0.01012129073
-0.002272650096
0.01127836997
-0.002821838081
0.01159828853
-0.003309606282
0.01136373111
-0.003766079312
0.01072610363
-0.004228204435
0.009742847569
-0.004733855844
0.008410148
-0.005317705855
0.006689799486
-0.006004614612
0.004525779644
-0.006799515201
0.001856881673
-0.007667779133
-0.001370348787
-0.00850937527
-0.005183877909
-0.00911834718
-0.009534932752
-0.009146228884
-0.01418689624
-0.008130583555
-0.0184700157
-0.005711992766
-0.02090438878
-0.002318372255
-0.01871941074
-0.009025839427
-0.0005010021925
0.003908373132
-0.001153207348
0.008327299021
-0.001678266568
0.01064634997
-0.001986615204
0.01158671867
-0.002102022556
0.01171369599
-0.002083220545
0.01134492916
-0.001996795685
0.01063967882
-0.001910060814
0.009656112748
-0.001888122975
0.008388210231
-0.001995193413
0.006796869986
-0.002291483891
0.004822070199
-0.002827356539
0.002392754399
-0.003630148239
-0.0005675570205
-0.004676001215
-0.004138024871
-0.00584070271
-0.008370231228
-0.006812366504
-0.01321523245
-0.007019799214
-0.01826258303
-0.005717923132
-0.02220626494
-0.002739920958
-0.02169741278
-0.01176576044
-0.0008315241069
0.004739897155
-0.001606844881
0.009102619933
-0.001954694579
0.01099419973
-0.001844834766
0.01147685892
-0.001392451231
0.01126131257
-0.0007264060123
0.01067888402
3.900666544e-05
0.009874266146
0.0008068058486
0.00888831363
0.001485686439
0.007709329678
0.001988984192
0.006293572278
0.00222955606
0.004581498401
0.002120051606
0.002502258952
0.001575537029
-2.304229595e-05
0.0005382632813
-0.003100751
-0.0009901212011
-0.00684184658
-0.002833095525
-0.01137225797
-0.004462568928
-0.01663310957
-0.004812351765
-0.02185648213
-0.002944847842
-0.02356491678
-0.01471060825
-0.001466196107
0.006206093205
-0.002381602551
0.01001802645
-0.002376781248
0.01098937848
-0.001608589455
0.0107086672
-0.0003562546692
0.01000897794
0.001155753008
0.009166876461
0.002763125391
0.008266893834
0.004340391272
0.007311047776
0.005782494758
0.006267226206
0.006989257016
0.005086810026
0.007857365565
0.003713389857
0.008274932198
0.002084692344
0.008117432322
0.0001344575725
0.007258966697
-0.002242285325
0.005580554084
-0.005163433923
0.003070150472
-0.008861854222
7.653041509e-05
-0.01363948918
-0.002447395328
-0.01933255654
-0.002601665717
-0.02341064647
-0.01731227392
-0.002365711385
0.008571804572
-0.002964757152
0.01061707228
-0.001924957852
0.009949579224
7.754090844e-05
0.00870616854
0.002529913021
0.007556605885
0.00513407525
0.006562714286
0.007712708036
0.005688261079
0.01014710505
0.004876650802
0.0123420065
0.004072324836
0.01420476323
0.0032240534
0.01563393359
0.002284219626
0.01651183039
0.001206795677
0.01669213333
-4.584518401e-05
0.01602307091
-0.001573222812
0.0143018397
-0.003442202694
0.01133026753
-0.005890281971
0.007053577078
-0.009362798688
0.002200362988
-0.0144793424
-0.001027869577
-0.020182414
-0.01834014351
-0.00215020432
0.01072200889
-7.199792043e-05
0.00853886588
0.003741349091
0.006136232448
0.007718320885
0.004729196997
0.01155934111
0.003715585797
0.01513743868
0.002984616783
0.01839444262
0.002431257132
0.0212965994
0.001974493975
0.02380729192
0.00156163226
0.02587475582
0.001156589418
0.02742604342
0.0007329319634
0.0283608531
0.0002719859859
0.02857259525
-0.0002575873014
0.02788538824
-0.0008860156803
0.02609771627
-0.001654530619
0.02290712261
-0.002699688403
0.01790610924
-0.004361785325
0.01076633998
-0.007339573063
0.002911933852
-0.01232800783
-0.01542820969
0.01072200881
0.01926087474
0.02539710726
0.03012630435
0.03384189021
0.03682650705
0.03925776424
0.04123225828
0.04279389061
0.04395048009
0.04468341208
0.04495539802
0.04469781065
0.04381179494
0.04215726442
0.03945757602
0.03509579063
0.02775621754
0.0154282097
)
;

boundaryField
{
    movingWall
    {
        type            calculated;
        value           uniform 0;
    }
    fixedWalls
    {
        type            calculated;
        value           uniform 0;
    }
    frontAndBack
    {
        type            empty;
    }
}


// ************************************************************************* //
