/*--------------------------------*- C++ -*----------------------------------*\
  =========                 |
  \\      /  F ield         | OpenFOAM: The Open Source CFD Toolbox
   \\    /   O peration     | Website:  https://openfoam.org
    \\  /    A nd           | Version:  13
     \\/     M anipulation  |
\*---------------------------------------------------------------------------*/
FoamFile
{
    format      ascii;
    class       surfaceScalarField;
    location    "17";
    object      phi_0;
}
// * * * * * * * * * * * * * * * * * * * * * * * * * * * * * * * * * * * * * //

dimensions      [0 3 -1 0 0 0 0];

internalField   nonuniform List<scalar> 
760
(
1.734809047e-06
-1.735437201e-06
-3.850577811e-05
4.024101246e-05
-0.000121351549
8.2846236e-05
-0.0002327355792
0.0001113848392
-0.0003585573374
0.0001258219439
-0.0004869460718
0.0001283889116
-0.0006075889976
0.0001206427401
-0.0007106403675
0.0001030514429
-0.0007861924994
7.555195348e-05
-0.0008246830265
3.848974006e-05
-0.0008182577654
-6.42564218e-06
-0.0007628689657
-5.538889638e-05
-0.0006605227082
-0.0001023459254
-0.0005209586065
-0.0001395635839
-0.0003618396581
-0.0001591184943
-0.0002067355806
-0.0001551039526
-8.070496118e-05
-0.0001260306916
-3.954874038e-06
-7.675001341e-05
1.641303061e-05
-2.036763594e-05
1.641295849e-05
-4.27601976e-05
4.102474944e-05
-0.0001851848683
0.0001826669477
-0.0004160890549
0.0003137518482
-0.0007065090052
0.0004018055136
-0.001026329601
0.0004456428374
-0.001348053097
0.0004501132028
-0.001646430213
0.0004190200883
-0.00189725044
0.0003538704906
-0.002077025018
0.0002553253865
-0.002164313074
0.0001257768882
-0.002142732273
-2.800662404e-05
-0.002005061816
-0.0001930588269
-0.001757543495
-0.0003498625856
-0.001422800669
-0.0004743055611
-0.001039872016
-0.000542047305
-0.000659910106
-0.0005350657953
-0.0003369964103
-0.0004489436287
-0.0001149009172
-0.0002988448408
-1.193906089e-05
-0.0001233302454
4.473895859e-06
-9.685266819e-05
0.0001378781362
-0.00035098953
0.0004368050832
-0.0007223621835
0.0006851248097
-0.001168563993
0.0008480078205
-0.001648857732
0.0009259365193
-0.00212569311
0.0009269477389
-0.002563924532
0.0008572511885
-0.002929741416
0.0007196862522
-0.003190767825
0.0005163501365
-0.003318008017
0.000253017004
-0.003289616924
-5.639643246e-05
-0.003095901434
-0.0003867738893
-0.002744521375
-0.0007012424285
-0.002264393843
-0.0009544326398
-0.001706395486
-0.001100044842
-0.001138861911
-0.001102598958
-0.000636549414
-0.0009512557456
-0.000263711657
-0.0006716822943
-5.515921102e-05
-0.0003318838804
-5.068527105e-05
-0.0001475108584
0.0002853889883
-0.0005084934545
0.0007977875262
-0.001012199911
0.001188829843
-0.001600563622
0.001436370707
-0.002223528983
0.0015489013
-0.002836640124
0.001540058623
-0.003398555243
0.001419166197
-0.003869363664
0.001190494551
-0.004210556422
0.0008575419744
-0.004387027202
0.0004294877959
-0.00437104151
-7.238156751e-05
-0.004147730597
-0.0006100847619
-0.003721348245
-0.001127625034
-0.003120979808
-0.001554801809
-0.002403588992
-0.00181743607
-0.00165147265
-0.001854715562
-0.0009612217971
-0.001641506155
-0.0004236221966
-0.00120928206
-9.943732148e-05
-0.0006560686509
-0.0001501224073
-0.0001929469961
0.0004783360309
-0.0006518213301
0.001256660428
-0.001277560858
0.001814567637
-0.001996656458
0.00215546603
-0.002750779693
0.002303024955
-0.003490734616
0.002280014315
-0.004171688717
0.002100119771
-0.00475017021
0.001768975862
-0.005183221157
0.00129059304
-0.005429812068
0.0006760795014
-0.005454495186
-4.769949427e-05
-0.005233166354
-0.0008314157566
-0.004760702591
-0.001600089832
-0.004059565498
-0.002255939359
-0.003187189128
-0.002689812355
-0.002238036622
-0.002803867546
-0.00133481576
-0.002544726908
-0.0006050831186
-0.001939014445
-0.0001474004616
-0.00111375047
-0.0002975224909
-0.000232870295
0.0007112056735
-0.000778711264
0.001802499534
-0.001513978446
0.002549834448
-0.002351534609
0.002993022461
-0.003226385038
0.003177875581
-0.004086619986
0.003140249834
-0.004886245531
0.002899745545
-0.005580402605
0.002463133268
-0.006123102432
0.001833292235
-0.006467430839
0.001020407611
-0.006568311933
5.317965046e-05
-0.00638819313
-0.001011536583
-0.00590602681
-0.002082256138
-0.005129531085
-0.003032434329
-0.004108817568
-0.003710525204
-0.002946378828
-0.003966304623
-0.001794480808
-0.003696624484
-0.0008300443177
-0.002903449022
-0.000206464559
-0.001737329993
-0.0005039872696
-0.0002667404814
0.000977945684
-0.0008865619424
0.002422319923
-0.001715875825
0.003379148595
-0.002656410512
0.00393355819
-0.003638499623
0.004159965671
-0.004609628057
0.0041113782
-0.005524969131
0.003815086267
-0.006340595101
0.003278759522
-0.007009370245
0.002502066626
-0.007479398322
0.001490435152
-0.007695265606
0.0002690455092
-0.007602890704
-0.001103911656
-0.007159236434
-0.002525909052
-0.006347979727
-0.003843689288
-0.005200541882
-0.004857961992
-0.003817671001
-0.005349174122
-0.002379482252
-0.005134813333
-0.001124686176
-0.004158243744
-0.0002858739018
-0.002576143553
-0.00078986236
-0.0002936176797
0.00127156299
-0.0009718126207
0.003100515656
-0.001875620525
0.004282957898
-0.002898157248
0.004956095709
-0.003967101719
0.005228910285
-0.005031451283
0.005175727084
-0.006050000895
0.0048336354
-0.006982519631
0.004211278681
-0.007783600267
0.003303147087
-0.008398968073
0.00210580314
-0.008764535651
0.0006346128481
-0.008809356537
-0.001059089257
-0.008464528346
-0.002870736615
-0.007680640476
-0.004627577091
-0.006455628534
-0.006082973486
-0.004870702312
-0.00693410003
-0.003121664023
-0.006883851948
-0.001515734242
-0.005764174648
-0.0003960999868
-0.003695779359
-0.001185962875
-0.0003126054406
0.001584168484
-0.001030910637
0.003818822352
-0.001984906118
0.005236955295
-0.00306111133
0.006032301265
-0.004186274714
0.006354072611
-0.005312898952
0.006302350757
-0.006405947105
0.005926684275
-0.007432153622
0.005237486301
-0.008351905902
0.004222899218
-0.009113306425
0.002867203422
-0.009648526579
0.001169832204
-0.009873622061
-0.0008339926718
-0.009694418663
-0.003049940242
-0.009022439991
-0.005299557014
-0.007806361471
-0.007299052142
-0.0060819858
-0.008658476125
-0.004032999338
-0.008932837494
-0.002026421428
-0.007770754134
-0.0005487911681
-0.005173410359
-0.001734753103
-0.0003237463722
0.001907915516
-0.001062471027
0.004557548515
-0.00203799795
0.006212483341
-0.003131298521
0.007125601397
-0.004269508664
0.007492281456
-0.005410491937
0.007443333825
-0.006527953148
0.007044146722
-0.007599200334
0.006308734406
-0.008595446387
0.005219144319
-0.009473904744
0.003745660859
-0.01017133866
0.001867265241
-0.01059967176
-0.0004056603564
-0.01064664591
-0.003002966971
-0.01018549847
-0.005760704311
-0.009103940414
-0.008380608677
-0.007362529021
-0.0103998865
-0.005087547304
-0.01120781781
-0.002669246007
-0.01018905636
-0.0007564543131
-0.007086204268
-0.002491208937
-0.0003294061556
0.00223732226
-0.001070530461
0.005298673927
-0.002036544426
0.007178497944
-0.003102648575
0.008191705006
-0.004197593892
0.008587226481
-0.005286652966
0.008532393238
-0.006354941774
0.008112436119
-0.007393995034
0.007347787632
-0.008391169817
0.006216317819
-0.009320518971
0.004675008588
-0.01013407243
0.002680819318
-0.01075305798
0.0002133256648
-0.01106150002
-0.002694524174
-0.01090535807
-0.005916844788
-0.01011050642
-0.009175459692
-0.008537553765
-0.01197283908
-0.006198353766
-0.01354702045
-0.003432879596
-0.0129545325
-0.001030913997
-0.009488171273
-0.003522125137
-0.000336285526
0.002573608502
-0.001068833962
0.006031223162
-0.001995415313
0.008105079669
-0.002984109682
0.009180398765
-0.003967509646
0.009570626813
-0.00492145737
0.009486341558
-0.00584561482
0.009036593415
-0.006749158173
0.00825133002
-0.007640204578
0.007107364653
-0.008516662939
0.005551467609
-0.009356438807
0.003520595485
-0.01010580993
0.0009626960278
-0.010664798
-0.002135535422
-0.01087473746
-0.005706903702
-0.01051569859
-0.00953449789
-0.009341321772
-0.01314721468
-0.00719587752
-0.01569246772
-0.004262345815
-0.01588806513
-0.001379113723
-0.0123714001
-0.004901236389
-0.000358406471
0.002932015728
-0.00108611103
0.006758928291
-0.001948509238
0.008967477266
-0.002805420013
0.01003730798
-0.003598868202
0.01036407477
-0.004321213539
0.01020868711
-0.004990995895
0.009706376317
-0.005638081615
0.008898415534
-0.006294256746
0.007763540358
-0.006985557017
0.006242769275
-0.007723419778
0.004258458747
-0.008492137483
0.001731413376
-0.009229955617
-0.001397716621
-0.00980410083
-0.005132758058
-0.009984330463
-0.009354267274
-0.009439739317
-0.01369180448
-0.007820623215
-0.01731158555
-0.005036321133
-0.01867236991
-0.001794323211
-0.01561339888
-0.00669556233
-0.0004218111149
0.003353827087
-0.001172027869
0.007509144802
-0.001952097251
0.009747544765
-0.002616889842
0.01070209835
-0.00313117887
0.01087836319
-0.003514916556
0.01059242519
-0.003811900479
0.01000336152
-0.004075379764
0.00916189542
-0.004361385127
0.008049546459
-0.004724200678
0.006605584592
-0.005210588488
0.004744845604
-0.005849610121
0.002370435638
-0.006634172302
-0.0006131526967
-0.007489396259
-0.004277533075
-0.00822478333
-0.008618878133
-0.008481980907
-0.01343460721
-0.007740621817
-0.01805294537
-0.005550155892
-0.02086283719
-0.002240637335
-0.01892291589
-0.008936199176
-0.0005712707106
0.003925097539
-0.001401005068
0.008338877409
-0.002078062542
0.01042459964
-0.002471112754
0.01109514769
-0.002596373529
0.01100362443
-0.002520112557
0.01051616423
-0.002320103531
0.009803352891
-0.002075117719
0.00891691005
-0.001863538632
0.007837968034
-0.001763690703
0.00650573679
-0.001852933629
0.004834089357
-0.002202630305
0.002720134957
-0.002865319617
4.953628775e-05
-0.003845937699
-0.00329691749
-0.005044797648
-0.007420019461
-0.006160644207
-0.01231876023
-0.006589083434
-0.01762450187
-0.005510040858
-0.02194187864
-0.002627412537
-0.02180554924
-0.01156361235
-0.0008721924801
0.004797289547
-0.001858725588
0.009325407921
-0.002368574872
0.01093444723
-0.002347972878
0.01107454695
-0.001922544752
0.01057819735
-0.001232459813
0.009826078497
-0.0003985135246
0.008969404521
0.0004752195215
0.008043175977
0.001293324003
0.007019863475
0.00196150183
0.005837558391
0.002381851341
0.004413739058
0.002451587275
0.002650399024
0.00206742467
0.0004336976709
0.001142707807
-0.002372198465
-0.000345126223
-0.005932185352
-0.002239916275
-0.01042397371
-0.003998554819
-0.01586586894
-0.004534028984
-0.02140640651
-0.002768344438
-0.0235712313
-0.01433195706
-0.00138776424
0.006185053191
-0.002551774596
0.01048941693
-0.002646104912
0.01102877736
-0.001898468155
0.01032691096
-0.0006479591943
0.009327689074
0.0008666566695
0.008311460991
0.002484738939
0.007351321628
0.004088077638
0.006439838551
0.005577763928
0.005530178024
0.006857876678
0.004557444453
0.007824817043
0.003446797978
0.008361177956
0.002114039423
0.00833216663
0.0004627111926
0.007589303746
-0.001629332061
0.005992237432
-0.004335118333
0.003497227956
-0.007928962955
0.0004136530522
-0.01278229568
-0.002157387539
-0.01883536292
-0.00235107169
-0.02337754747
-0.01668302802
-0.002139422613
0.008324475392
-0.002973148258
0.0113231432
-0.00181915532
0.009874783757
0.0002993488509
0.008208406059
0.002768525559
0.006858511147
0.005310428955
0.005769557166
0.007781960339
0.004879790817
0.01009370782
0.004128091045
0.01217625732
0.003447627792
0.01395708272
0.002776620575
0.01534786104
0.002056022325
0.01623824138
0.001223655459
0.01648698884
0.0002139608905
0.01591742998
-0.001059774456
0.01431001177
-0.002727702131
0.01142492491
-0.005043878201
0.007171371387
-0.008528739887
0.00224841649
-0.01391240843
-0.0009709981314
-0.02015813739
-0.01765402404
-0.002467581917
0.01079205692
7.517338325e-06
0.008848046634
0.004171271172
0.005711031692
0.008266019554
0.004113658344
0.01198756148
0.003136969063
0.01531635068
0.002440767343
0.01826212105
0.001934020468
0.02083884415
0.001551369211
0.02304880867
0.001237663517
0.02487433662
0.0009510921048
0.02627229925
0.0006580616128
0.02716439312
0.0003315633164
0.02743033559
-5.197853625e-05
0.02690330046
-0.0005327426704
0.02533608972
-0.001160488933
0.0223665328
-0.002074320944
0.017486439
-0.003648644909
0.01030975225
-0.006735720448
0.002417886675
-0.01226626936
-0.01523613598
0.01079205668
0.01964010349
0.02535113614
0.02946479494
0.03260176387
0.03504253161
0.03697655339
0.03852792244
0.03976558404
0.04071667621
0.04137473854
0.04170629977
0.04165432358
0.04112157984
0.03996109211
0.03788677252
0.03423812584
0.02750240711
0.01523613661
)
;

boundaryField
{
    movingWall
    {
        type            calculated;
        value           uniform 0;
    }
    fixedWalls
    {
        type            calculated;
        value           uniform 0;
    }
    frontAndBack
    {
        type            empty;
    }
}


// ************************************************************************* //
