/*--------------------------------*- C++ -*----------------------------------*\
  =========                 |
  \\      /  F ield         | OpenFOAM: The Open Source CFD Toolbox
   \\    /   O peration     | Website:  https://openfoam.org
    \\  /    A nd           | Version:  13
     \\/     M anipulation  |
\*---------------------------------------------------------------------------*/
FoamFile
{
    format      ascii;
    class       vectorField;
    location    "17";
    object      U_all;
}
// * * * * * * * * * * * * * * * * * * * * * * * * * * * * * * * * * * * * * //


400
(
(1.07491494e-05 -3.756308949e-05 0)
(-0.0006657256408 0.0004127121201 -1.542746724e-23)
(-0.002182808948 0.0009192328303 0)
(-0.004042502219 0.001310957301 0)
(-0.005963669991 0.001532867337 6.801190762e-25)
(-0.007752015023 0.001567592961 4.148484259e-24)
(-0.009271780773 0.001421554315 -7.218835791e-24)
(-0.01042194469 0.001118207446 7.696584459e-24)
(-0.01112247311 0.0006952227111 -2.109830556e-25)
(-0.0113133551 0.000202921587 -4.017460856e-24)
(-0.01095950928 -0.000299740456 5.829931297e-24)
(-0.01006234631 -0.0007465545705 -5.952212315e-23)
(-0.008672724626 -0.001074390256 -6.578643264e-23)
(-0.00689874609 -0.00123195979 -7.813273683e-23)
(-0.004909514417 -0.001191918784 4.593862195e-24)
(-0.002928319919 -0.0009617565879 -4.16129189e-24)
(-0.001207818528 -0.0005916438276 -2.016019539e-22)
(-2.180601014e-05 -0.0001707504318 0)
(0.0005161921893 0.0001710290432 1.593907009e-25)
(0.0002222485265 0.0003052825813 -3.662894168e-24)
(-0.0002630249656 0.0008282198115 1.384091669e-25)
(-0.002699277996 0.003379103347 1.552438128e-23)
(-0.006896404241 0.005595933035 1.542530122e-25)
(-0.01193321201 0.00699724708 -8.435063134e-25)
(-0.01710764484 0.007542039009 1.152514396e-24)
(-0.02194059346 0.007283201061 1.292864396e-23)
(-0.026070295 0.006312918064 1.531608676e-24)
(-0.0292216293 0.004748207519 -7.44428886e-24)
(-0.03118161209 0.002734727589 1.024271862e-23)
(-0.0317983014 0.0004536356844 4.536273527e-24)
(-0.03098771539 -0.00187946361 -6.347602958e-24)
(-0.02875914385 -0.004015734885 2.947908218e-24)
(-0.02524468249 -0.005699619601 3.907869005e-23)
(-0.020713241 -0.006698619739 -1.965293648e-24)
(-0.01557867325 -0.006846686614 3.777128576e-24)
(-0.01038076418 -0.006092487795 -9.828860292e-23)
(-0.005730524157 -0.0045443087 9.729477968e-23)
(-0.002235738429 -0.002508450165 -4.128448692e-25)
(-0.0001839647697 -0.0005052410373 4.232567827e-25)
(8.311080465e-05 0.0006076422364 0)
(-0.0004180353924 0.002930837851 -2.906955241e-25)
(-0.004639740447 0.008789876787 1.700567573e-23)
(-0.01135207715 0.01321853431 -8.228008007e-24)
(-0.01929377951 0.01576595803 -2.052018058e-25)
(-0.02742714302 0.01650329942 2.015894184e-25)
(-0.03505893218 0.01562026561 1.082205641e-26)
(-0.04164534802 0.01334095001 -1.359124734e-24)
(-0.04676173344 0.00990774318 -4.64749014e-25)
(-0.05007381176 0.005598484628 -1.072525952e-23)
(-0.05133781572 0.0007487824 0)
(-0.05040863374 -0.004229975782 0)
(-0.04727626113 -0.008869490176 2.684468781e-23)
(-0.04210923457 -0.0126604939 2.82717765e-23)
(-0.03527633596 -0.01511399742 -1.657580582e-24)
(-0.02736396546 -0.01584197894 4.887837123e-23)
(-0.01915486491 -0.0146581264 9.504596889e-23)
(-0.01155413833 -0.01168476281 4.076630786e-23)
(-0.005463869562 -0.007448493238 4.481917204e-25)
(-0.001451729024 -0.002938668713 8.937400692e-26)
(-9.073251329e-05 0.0002225419241 0)
(-0.0005014076397 0.006035439088 -4.237867914e-23)
(-0.006390894599 0.01634287242 -1.690730629e-23)
(-0.01550681885 0.0235190373 8.154521413e-24)
(-0.02623229954 0.02739538308 0)
(-0.03722245862 0.0282748493 0)
(-0.04760933261 0.02654673831 0)
(-0.05670297763 0.02259943663 -4.998780151e-26)
(-0.06395183157 0.01681640171 -2.025683178e-24)
(-0.06890514164 0.009616160403 0)
(-0.07120391778 0.001498973405 1.670407056e-24)
(-0.07061008361 -0.006915969308 2.825721558e-25)
(-0.06704177561 -0.01489943549 -2.833633545e-25)
(-0.06062351149 -0.0216298784 0)
(-0.05174711766 -0.02627638798 4.174367289e-23)
(-0.04110540014 -0.02812347815 -4.722414497e-23)
(-0.02969026921 -0.02674328848 -2.813600847e-23)
(-0.01872056223 -0.02219484621 -4.0634984e-23)
(-0.00948079318 -0.01520981245 7.782859435e-25)
(-0.002975273375 -0.007297955697 9.657998757e-23)
(-0.0002316782886 -0.0008693974362 0)
(-0.0005304992468 0.01007755836 4.258490237e-23)
(-0.007968950964 0.02590692359 4.780597088e-25)
(-0.01936216148 0.03636595821 -4.671410853e-25)
(-0.03276645203 0.04178477429 0)
(-0.04656745368 0.04282563498 7.743395228e-25)
(-0.05975334048 0.04013993959 -7.636030434e-25)
(-0.07151837305 0.03430056755 3.649653539e-23)
(-0.08120221718 0.02582757419 1.823137797e-23)
(-0.08823527094 0.01526377148 6.15203602e-24)
(-0.0921240192 0.003257050599 -1.672353087e-24)
(-0.09247847534 -0.009378210585 0)
(-0.08906038155 -0.02162968996 4.431731839e-25)
(-0.08185886785 -0.03231163516 1.032716106e-23)
(-0.07118523927 -0.04015189314 -4.393188755e-23)
(-0.05775560975 -0.04396165126 1.962932951e-24)
(-0.04274040107 -0.04289771601 4.323537823e-23)
(-0.0277265474 -0.03679630134 -4.01579047e-25)
(-0.01453672393 -0.02650601903 0)
(-0.00485513297 -0.01407798214 5.424338962e-23)
(-0.0003636754701 -0.002848576173 -2.549164339e-22)
(-0.0005262336144 0.01497301188 9.832684466e-23)
(-0.009361792675 0.0373251767 -4.904815273e-25)
(-0.02284337229 0.05161409 0)
(-0.03876676841 0.05884462562 0)
(-0.05529827962 0.06016118024 -8.711087255e-23)
(-0.0713185227 0.0565363872 -8.472576155e-23)
(-0.08593844344 0.04873799596 -4.042506286e-23)
(-0.09840990884 0.03739980858 -1.490526032e-23)
(-0.1080462186 0.02314611825 -5.291580814e-24)
(-0.1141944934 0.006722650296 -8.110168074e-24)
(-0.1162585823 -0.01089491064 6.527930683e-24)
(-0.113756939 -0.02843014277 8.685268218e-24)
(-0.1064259354 -0.04429545655 -1.885536696e-23)
(-0.09436335087 -0.05666985356 3.999717285e-24)
(-0.07818486857 -0.06369938579 0)
(-0.05916760818 -0.06385990994 -1.630836383e-23)
(-0.03930018111 -0.05647934765 -4.80059091e-27)
(-0.02112099288 -0.04232038492 0)
(-0.007311522237 -0.02396586338 -1.506047079e-22)
(-0.0005208817238 -0.005924225858 6.022662429e-22)
(-0.0004983765712 0.02061023399 -9.765682091e-23)
(-0.01051349488 0.05036883232 2.828194697e-22)
(-0.02579091084 0.06901093169 1.524627127e-22)
(-0.04395692643 0.07836789672 3.611990386e-24)
(-0.06301754889 0.08017420569 -7.306414596e-23)
(-0.08179133549 0.07577530378 9.015090161e-23)
(-0.09934598387 0.06613552736 -3.578737548e-24)
(-0.1148769393 0.05196489585 -1.721041917e-24)
(-0.1275972225 0.03390388133 2.511530037e-24)
(-0.1366891048 0.01271558492 7.322260481e-24)
(-0.1413148892 -0.01054329964 -6.431326283e-24)
(-0.1406759496 -0.0343884301 -9.632271594e-24)
(-0.1341380707 -0.05683466329 -3.254826902e-23)
(-0.1214255083 -0.0754269177 -3.557035029e-23)
(-0.1028687246 -0.08743291665 5.431479281e-25)
(-0.07968889099 -0.0902897424 0)
(-0.05421656979 -0.08236061653 0)
(-0.02984399211 -0.06391873564 -2.880923099e-24)
(-0.01065281811 -0.03795808879 2.944814756e-24)
(-0.0007341330848 -0.0104950961 1.026098266e-22)
(-0.0004476242023 0.0268283049 0)
(-0.01133512989 0.06470273385 1.998987969e-22)
(-0.02798113732 0.08815742066 8.948733594e-23)
(-0.04793965667 0.09997285437 0)
(-0.06912313619 0.1025624899 1.566558961e-22)
(-0.09033902751 0.09768923703 0)
(-0.1106601539 0.0865125498 -1.4246029e-22)
(-0.1292723407 0.06977530959 6.495373149e-24)
(-0.1453307553 0.04805574564 0)
(-0.1578841438 0.02202930799 0)
(-0.165862447 -0.007286056233 -1.367278595e-24)
(-0.1681210205 -0.03830723753 -9.24473244e-25)
(-0.1635696058 -0.06873195889 1.482488457e-22)
(-0.1513978414 -0.09545658924 -4.695186542e-23)
(-0.13140868 -0.11469574 -2.533409601e-24)
(-0.1044770141 -0.1224405441 1.5088288e-24)
(-0.07303565148 -0.115439531 -1.532629436e-24)
(-0.04131701207 -0.09274831384 0)
(-0.01523960677 -0.05736123359 3.188563698e-24)
(-0.001043127438 -0.01713536406 -1.008844548e-21)
(-0.0003746853582 0.03341174059 0)
(-0.01173966003 0.07986831788 -1.126691693e-22)
(-0.02918010389 0.1084796507 -6.182172354e-22)
(-0.05027060888 0.1230507235 -3.749373907e-22)
(-0.07289617971 0.1267435919 0)
(-0.09590410592 0.1217807722 4.111007246e-22)
(-0.1184262913 0.1095217755 1.257579831e-22)
(-0.1397016398 0.09070770267 -5.565794452e-24)
(-0.158901037 0.06578090318 5.538246805e-24)
(-0.1750205983 0.03521811274 0)
(-0.1868294927 -0.0001469284145 2.903360176e-23)
(-0.1928929677 -0.03881105615 4.676591817e-24)
(-0.1916620843 -0.07832162437 -1.071258704e-22)
(-0.1816772392 -0.1150463281 7.952619864e-23)
(-0.1619593834 -0.1441068476 -2.407438793e-22)
(-0.1326254153 -0.1597014908 0)
(-0.09571913349 -0.156172666 0)
(-0.0559800044 -0.1301900157 0)
(-0.02146378703 -0.08374614225 0)
(-0.001498988988 -0.02663604181 5.551051109e-22)
(-0.0002881659226 0.04010494304 0)
(-0.01168843857 0.09530440985 -3.488135841e-22)
(-0.02922892348 0.129233383 8.920315098e-22)
(-0.05058064584 0.14674146 3.611450892e-22)
(-0.07365796615 0.1517937397 0)
(-0.09739570937 0.1471181304 -3.854662348e-22)
(-0.1210405304 0.1342960981 -3.167579452e-23)
(-0.1439582307 0.11405759 3.325999054e-22)
(-0.1654351525 0.08666280099 1.765525273e-22)
(-0.1845432258 0.05229855095 -4.050909738e-23)
(-0.2000503062 0.01146676073 1.65478314e-23)
(-0.2103805157 -0.0346265591 -8.240657746e-24)
(-0.213640497 -0.08364547876 3.363076932e-22)
(-0.2077435802 -0.1317298925 0)
(-0.1907502537 -0.1731129211 2.408601847e-22)
(-0.1615678337 -0.2000910244 5.737958799e-24)
(-0.1211133228 -0.2038532993 -5.8235287e-24)
(-0.07381471851 -0.1770811905 1.536872051e-22)
(-0.02970211857 -0.118779895 -5.401297033e-24)
(-0.002177966519 -0.04002654962 0)
(-0.000213033721 0.04665935517 0)
(-0.01125114851 0.1104140064 0)
(-0.02815495235 0.1495550148 -5.015890301e-22)
(-0.04873846451 0.1699557183 -1.878399812e-23)
(-0.07098847423 0.1764373964 2.034995797e-23)
(-0.09397651218 0.1722893093 -2.010968237e-23)
(-0.1171213488 0.1593603776 -2.312390797e-23)
(-0.1399937957 0.1383971163 -3.02331533e-22)
(-0.1621085038 0.1094785008 6.692540923e-23)
(-0.1827724259 0.07245924922 4.502788412e-23)
(-0.2009610667 0.02739827185 -4.566888881e-23)
(-0.2152045757 -0.02500126605 0)
(-0.2235319915 -0.08286693922 -7.802594327e-23)
(-0.2234352439 -0.1425841016 0)
(-0.2120353056 -0.1980218398 -3.730689238e-22)
(-0.1867073923 -0.2399069365 5.229403692e-22)
(-0.1464085549 -0.2559094465 0)
(-0.09391780099 -0.2329746709 -1.48276185e-22)
(-0.04020531979 -0.163860379 1.925964825e-22)
(-0.003199423381 -0.05857466003 -3.40000199e-22)
(-0.0002033108213 0.05292132163 0)
(-0.01068044437 0.1246849924 9.172328518e-22)
(-0.0262985878 0.168564687 -2.437714161e-23)
(-0.04502955483 0.1914513142 9.182208851e-22)
(-0.06496739968 0.1991055498 -2.508697216e-23)
(-0.08539029508 0.1954495742 2.834368026e-23)
(-0.1059576715 0.1826655333 -2.808494947e-23)
(-0.1265235333 0.1615793896 -1.658093193e-23)
(-0.1469354645 0.1321430742 -5.251380968e-22)
(-0.1668860512 0.09390692968 -8.891409e-24)
(-0.1857735219 0.04645493672 9.644027054e-24)
(-0.2025218969 -0.01015629294 3.308381412e-22)
(-0.2154556356 -0.07489021508 -5.811233447e-22)
(-0.2220527296 -0.1449021538 0)
(-0.2188226155 -0.2145302289 8.870334611e-22)
(-0.2016308907 -0.2738436313 -4.926272706e-22)
(-0.1668566271 -0.3074191828 -1.567582574e-23)
(-0.1140085356 -0.2952314142 0)
(-0.05287406252 -0.219468783 -1.87879389e-22)
(-0.004747591889 -0.08372929315 3.349260202e-22)
(-0.0003663018455 0.05897488561 1.549271152e-23)
(-0.01050993085 0.1378672811 -8.754139791e-22)
(-0.02444306282 0.1855148776 -1.155889705e-21)
(-0.04031026986 0.2099558356 -8.618546222e-22)
(-0.05636233107 0.2180591398 0)
(-0.07221414609 0.214468566 3.509057405e-23)
(-0.0878673847 0.2017662002 -7.284811775e-23)
(-0.1035404302 0.1809312985 5.859625089e-23)
(-0.1194907122 0.1518749112 3.01668822e-22)
(-0.1358921218 0.113931261 -1.126624931e-23)
(-0.1527113685 0.0662650347 0)
(-0.1695553935 0.008254743946 -3.598747483e-22)
(-0.1853744198 -0.06006255682 7.506616988e-22)
(-0.1981326433 -0.1371631821 8.822537521e-22)
(-0.2044256472 -0.2188032151 -5.288035782e-22)
(-0.1991471298 -0.2958379344 5.155731338e-22)
(-0.1760867583 -0.3512660971 1.074309427e-23)
(-0.130095715 -0.3582765467 -1.091561471e-23)
(-0.06688445795 -0.2842154901 -8.313377159e-23)
(-0.007082122269 -0.1169480987 0)
(-0.0009118725757 0.06536166918 -1.909617942e-23)
(-0.01169545895 0.1501793271 -1.3258157e-21)
(-0.02393103449 0.1999215573 1.093137177e-21)
(-0.03607810069 0.2242596642 6.728949499e-22)
(-0.0466579382 0.2315020022 6.009007769e-22)
(-0.05587253607 0.2271058442 6.637249203e-22)
(-0.06422892344 0.2140792758 -4.453433051e-23)
(-0.07240379369 0.1935927897 -3.45763887e-22)
(-0.08110696072 0.1655877359 2.149888464e-22)
(-0.09101508044 0.1292930971 0)
(-0.1027005054 0.08358331369 0)
(-0.1165065538 0.02727395123 2.653219592e-22)
(-0.132297257 -0.04053339285 8.201499731e-23)
(-0.1490520468 -0.1199195747 -2.816987835e-22)
(-0.1642375043 -0.2088326616 -5.406567688e-23)
(-0.1728728409 -0.3005967164 1.303245219e-22)
(-0.1670879819 -0.3792229797 -3.395434346e-22)
(-0.136557359 -0.4135314596 -1.63595623e-23)
(-0.08018851428 -0.3537315737 8.302015796e-23)
(-0.01050727227 -0.1593641543 -6.038478121e-22)
(-0.002262794868 0.07346213394 0)
(-0.01582665092 0.1625741169 2.14413936e-21)
(-0.02670193831 0.211674493 0)
(-0.03430415643 0.2332607177 -1.350740353e-21)
(-0.03770131279 0.237645114 6.190982673e-23)
(-0.03812649054 0.231143076 -6.18681401e-22)
(-0.03682915953 0.2171082071 -4.751949285e-22)
(-0.03504893071 0.1968495816 8.293061446e-22)
(-0.03395441641 0.1703269701 -1.883683289e-22)
(-0.03466726728 0.1367477244 0)
(-0.0382827172 0.09484804621 0)
(-0.0458116643 0.04311100722 2.414231759e-23)
(-0.05806136318 -0.02006149919 -6.002847238e-22)
(-0.07528722112 -0.09612958911 -4.306500467e-22)
(-0.09657643097 -0.1854812007 4.635907825e-22)
(-0.1184489114 -0.2852838502 -6.483190335e-22)
(-0.1333474201 -0.3837624007 9.096363643e-23)
(-0.1265798466 -0.4503552853 2.981395703e-23)
(-0.08900699824 -0.4197742527 5.662360864e-22)
(-0.01527005357 -0.2111279468 6.02709895e-22)
(-0.005182873345 0.08596701488 0)
(-0.02527917066 0.1765785764 1.466144749e-22)
(-0.03488873347 0.2205132837 -4.914099555e-23)
(-0.03648777125 0.2353849683 7.637557488e-22)
(-0.03030292552 0.2342385475 -7.000072225e-22)
(-0.01930935381 0.2240718421 4.742762593e-23)
(-0.005775488593 0.2082881416 -1.018378309e-22)
(0.008398196893 0.1880895062 -3.386775804e-22)
(0.02162173467 0.1633870581 2.061264393e-22)
(0.03245284636 0.1333476927 0)
(0.03941624658 0.09668562426 0)
(0.04101208419 0.05179868167 -2.900847337e-22)
(0.03563823438 -0.00319251413 0)
(0.02184850377 -0.0705219009 -5.510536486e-22)
(-0.001382612046 -0.1525177452 -1.482776905e-23)
(-0.03320381081 -0.2505454597 2.558672091e-23)
(-0.06917154746 -0.3598863997 2.200577828e-22)
(-0.09233011662 -0.4574959344 4.796819003e-24)
(-0.08720198114 -0.4697608122 -5.79152863e-22)
(-0.02103347608 -0.2698632057 0)
(-0.01111736209 0.1085962682 0)
(-0.04250836998 0.1946912967 -8.843651312e-22)
(-0.04800317545 0.2257701129 -5.409082503e-22)
(-0.03927519582 0.2281466969 4.542155155e-22)
(-0.01888873845 0.2181612419 -1.712179132e-24)
(0.007528010464 0.2027574081 -4.558634554e-23)
(0.03652559017 0.184713727 5.692680704e-22)
(0.06566509294 0.1646837302 -2.764916237e-23)
(0.09310316763 0.1423079326 -2.068190287e-22)
(0.1172252026 0.1166439305 3.140225405e-23)
(0.1363915489 0.08644487274 -3.424050218e-23)
(0.1488250323 0.05022112835 -3.689079037e-23)
(0.1524011832 0.006208067046 3.204562206e-22)
(0.1448266775 -0.04791437319 6.117837632e-22)
(0.1234210716 -0.1152651922 -5.100057549e-22)
(0.08625712293 -0.2003881021 -1.616268511e-22)
(0.03192247302 -0.3067563561 1.530600358e-22)
(-0.02367014504 -0.4239592693 7.293603104e-23)
(-0.06494399658 -0.4871334836 1.913190808e-21)
(-0.02510245332 -0.3291327301 2.954877724e-21)
(-0.02004609734 0.146079217 -4.389004267e-23)
(-0.06417297234 0.2112915011 4.416169743e-23)
(-0.05073088042 0.2177083984 9.999101046e-22)
(-0.01939447173 0.201431638 -8.20907749e-24)
(0.02406458487 0.1808643651 0)
(0.07143669041 0.1606515091 4.361578346e-23)
(0.1189472722 0.1416161852 -2.272512304e-22)
(0.1643420041 0.1232972809 -9.022267184e-23)
(0.2060860355 0.104805667 3.678304118e-23)
(0.2428281859 0.08507964497 -1.700574389e-23)
(0.2730935718 0.06298153771 3.428101319e-23)
(0.2951402331 0.03729088978 -6.58987877e-23)
(0.3065984275 0.006566380857 -9.300139213e-23)
(0.3048906442 -0.03084756135 1.516786723e-22)
(0.2863259615 -0.07783791683 0)
(0.2470029167 -0.1399127842 1.505901709e-22)
(0.1810485912 -0.2266221638 2.559750456e-22)
(0.09601190346 -0.34437986 0)
(-0.006714278533 -0.4552107584 -3.675435548e-21)
(-0.01922681069 -0.3777442545 -2.892508887e-21)
(-0.02591751199 0.227689693 -9.513526114e-22)
(-0.0399800718 0.2238263459 -1.38875063e-22)
(0.03655781365 0.1810543838 -2.334909436e-22)
(0.1090323948 0.1450929374 -1.193300468e-22)
(0.1816823173 0.1172258603 -4.295119297e-23)
(0.2489522075 0.09625929081 9.779515194e-23)
(0.3099593423 0.08000822269 -1.407865293e-22)
(0.3645340023 0.06655685369 1.296381906e-22)
(0.4125317823 0.05448763591 -8.614482137e-23)
(0.4535315525 0.04271200647 1.131963073e-25)
(0.4867001855 0.03033210234 1.527004279e-23)
(0.5106677144 0.01654221902 7.993806882e-23)
(0.5235958928 0.0005505402075 -1.810582561e-22)
(0.5231311701 -0.0186200968 -1.616886042e-22)
(0.5051966218 -0.04285379052 -4.262666007e-23)
(0.4658463831 -0.07632541418 0)
(0.3952514536 -0.1286067898 -1.845896121e-22)
(0.2915933959 -0.2208461959 8.148127758e-22)
(0.1197372063 -0.3525011258 1.631505052e-21)
(0.0267033722 -0.3775485599 2.172605527e-21)
(0.214291531 0.1347467695 9.864240099e-22)
(0.2776376128 0.09870766315 0)
(0.4316664711 0.05810537949 -2.593950804e-22)
(0.530477938 0.03846223072 -1.741448495e-22)
(0.6016910797 0.02623253306 0)
(0.6571039025 0.01831713523 -6.007026558e-23)
(0.701495463 0.0131342127 6.374598171e-23)
(0.7375709334 0.00954114522 -1.798903679e-23)
(0.7668996645 0.006804597407 2.883994187e-23)
(0.7901735877 0.004465989202 2.313518705e-23)
(0.8074221087 0.002223446192 0)
(0.8182350472 -0.0001474057525 -2.871726119e-23)
(0.8216307018 -0.002721042289 0)
(0.8162282568 -0.005710557103 2.737509779e-23)
(0.7991285809 -0.00961014276 1.422055039e-23)
(0.7679981783 -0.01500222083 -5.798689046e-23)
(0.710656758 -0.02502575376 -2.53530941e-22)
(0.6235191532 -0.04204350273 -6.91760409e-22)
(0.4230090232 -0.09183035289 0)
(0.2705672687 -0.1524024887 -2.119434637e-21)
)


// ************************************************************************* //
