/*--------------------------------*- C++ -*----------------------------------*\
  =========                 |
  \\      /  F ield         | OpenFOAM: The Open Source CFD Toolbox
   \\    /   O peration     | Website:  https://openfoam.org
    \\  /    A nd           | Version:  13
     \\/     M anipulation  |
\*---------------------------------------------------------------------------*/
FoamFile
{
    format      ascii;
    class       vectorField;
    location    "17";
    object      U_all;
}
// * * * * * * * * * * * * * * * * * * * * * * * * * * * * * * * * * * * * * //


400
(
(0.0001402443794 -0.000142994242 0)
(-0.0001879323313 5.990042438e-05 0)
(-0.001466238956 0.0002740007448 0)
(-0.003494069505 0.0004111484245 0)
(-0.005962907196 0.0004818153389 0)
(-0.008601088001 0.0005042665999 0)
(-0.01118484129 0.0004879976022 0)
(-0.0135107836 0.0004337249092 0)
(-0.01537584228 0.0003374415356 0)
(-0.01657553545 0.0001960813317 0)
(-0.01692333515 1.334279964e-05 0)
(-0.01628848452 -0.0001957844314 0)
(-0.01464360078 -0.0004029348565 0)
(-0.01210804815 -0.0005691242008 0)
(-0.008969311182 -0.0006527045305 0)
(-0.005664870862 -0.0006217199868 0)
(-0.002715149313 -0.0004666749416 0)
(-0.0006078619068 -0.0002093247745 0)
(0.0003633442579 8.232916086e-05 0)
(0.0002554945711 0.0002498674029 0)
(-7.058290903e-05 0.0001850247743 0)
(-0.001879999157 0.001775468271 0)
(-0.005761067138 0.003389687548 0)
(-0.0112111739 0.004494726621 0)
(-0.0175695222 0.005063127334 0)
(-0.02423724971 0.005164378438 0)
(-0.03068064303 0.004851172212 0)
(-0.03639710157 0.004139808578 0)
(-0.04089422466 0.00303015698 0)
(-0.04370011482 0.001540956064 0)
(-0.04441059651 -0.000253895755 0)
(-0.04276689634 -0.002199457592 0)
(-0.03874722613 -0.004054607249 0)
(-0.03264588511 -0.005516934412 0)
(-0.02510750813 -0.006281123582 0)
(-0.01708545285 -0.006124381915 0)
(-0.009703051902 -0.004999011775 0)
(-0.004019330302 -0.003107283757 0)
(-0.0007229855471 -0.000965757707 0)
(0.0001574323111 0.0004095571206 0)
(-0.0003369255403 0.001595893226 0)
(-0.003945413002 0.005794375234 0)
(-0.01045005034 0.009505634837 0)
(-0.01899846037 0.01199995367 0)
(-0.02865066083 0.01323737676 0)
(-0.03859901873 0.01333604264 0)
(-0.04810889789 0.01239129802 0)
(-0.05647735695 0.01044233409 0)
(-0.06301957851 0.00751271959 0)
(-0.06709140425 0.003681826078 0)
(-0.06815166089 -0.0008431640291 0)
(-0.06585711112 -0.005678329083 0)
(-0.06017242894 -0.0102580065 0)
(-0.05146872522 -0.01389007914 0)
(-0.04057577354 -0.01588095929 0)
(-0.02874793277 -0.01572052247 0)
(-0.01750766241 -0.01328948523 0)
(-0.008358330472 -0.009029435738 0)
(-0.002417825164 -0.004035648425 0)
(-1.991073981e-05 -0.0002310823792 0)
(-0.000575547563 0.004101189719 0)
(-0.005914846201 0.01209872064 0)
(-0.0149268837 0.01847806171 0)
(-0.02634897754 0.02261493491 0)
(-0.03896014946 0.0245630225 0)
(-0.05179532524 0.02452349644 0)
(-0.06399287052 0.02264379722 0)
(-0.07472598814 0.01899064445 0)
(-0.08318467863 0.0136200004 0)
(-0.08859944823 0.006688440877 0)
(-0.09030630483 -0.001436765922 0)
(-0.08784749489 -0.01010247047 0)
(-0.08109543092 -0.01835836604 0)
(-0.07037939375 -0.02503600451 0)
(-0.05658185701 -0.02893824853 0)
(-0.04115389736 -0.02913742553 0)
(-0.02598759329 -0.02533378428 0)
(-0.01310599752 -0.01816714429 0)
(-0.004224444878 -0.009353691793 0)
(-0.0001730154835 -0.00175769019 0)
(-0.0007813202481 0.007599475242 0)
(-0.007692094559 0.0205073893 0)
(-0.01901361687 0.03005590844 0)
(-0.03307888085 0.03601067793 0)
(-0.0483986553 0.0386633212 0)
(-0.06388595663 0.03836210333 0)
(-0.07860577002 0.03532764986 0)
(-0.09166512546 0.02965504156 0)
(-0.10217614 0.02142405928 0)
(-0.1092668803 0.01085470346 0)
(-0.1121362762 -0.001541000106 0)
(-0.1101520118 -0.0148486705 0)
(-0.1029884322 -0.02771714584 0)
(-0.09079502084 -0.03843749438 0)
(-0.07436818155 -0.04517742186 0)
(-0.05526575566 -0.04639556718 0)
(-0.03576579459 -0.04139663987 0)
(-0.018566939 -0.0308715863 0)
(-0.006236198137 -0.01715753638 0)
(-0.0003149917476 -0.004205130843 0)
(-0.0009555829851 0.01197289487 0)
(-0.009247429784 0.0308040356 0)
(-0.02262293182 0.04399447597 0)
(-0.03905952218 0.05193908949 0)
(-0.05683401823 0.05531473723 0)
(-0.07477546426 0.05469516582 0)
(-0.09192254407 0.05040360114 0)
(-0.1073657038 0.04256061368 0)
(-0.1201796717 0.03124373695 0)
(-0.1294084365 0.01669172098 0)
(-0.1340973164 -0.0004956710513 0)
(-0.1333779323 -0.01919761132 0)
(-0.1266154535 -0.03768710308 0)
(-0.1136248093 -0.05367078782 0)
(-0.0949424925 -0.06452771734 0)
(-0.07209221708 -0.06782387911 0)
(-0.04771103011 -0.06211287878 0)
(-0.02533703244 -0.04784551975 0)
(-0.00873372689 -0.02793629351 0)
(-0.0004852392802 -0.007710279409 0)
(-0.001095898513 0.01709820174 0)
(-0.01054908112 0.0427365985 0)
(-0.02566224338 0.06000203292 0)
(-0.04412700059 0.07011684838 0)
(-0.06403250054 0.07428058397 0)
(-0.08416573925 0.07337457644 0)
(-0.1035855646 0.06785848338 0)
(-0.1214156528 0.05787299127 0)
(-0.1367392593 0.04345407963 0)
(-0.1485479997 0.02478908833 0)
(-0.1557388882 0.002470905792 0)
(-0.1571724428 -0.02227594233 0)
(-0.1518148137 -0.0474266959 0)
(-0.1389906286 -0.07010502844 0)
(-0.118758669 -0.08675911984 0)
(-0.09236994914 -0.09372102882 0)
(-0.06266492925 -0.08827192248 0)
(-0.03410565635 -0.07010060794 0)
(-0.01207587094 -0.04251144361 0)
(-0.0007315074501 -0.01258483824 0)
(-0.001197222277 0.02283458094 0)
(-0.01155432478 0.05600101148 0)
(-0.0280163064 0.07770915736 0)
(-0.04806425915 0.09016507055 0)
(-0.06964712678 0.09521563763 0)
(-0.0915516593 0.09413246389 0)
(-0.1129034548 0.0875502393 0)
(-0.132913499 0.07562669573 0)
(-0.1507328462 0.05831263222 0)
(-0.1653592665 0.03565969409 0)
(-0.1755891329 0.008131616437 0)
(-0.180031802 -0.02309191619 0)
(-0.1772205213 -0.05583405643 0)
(-0.1658676338 -0.08672166471 0)
(-0.1453142254 -0.1112049642 0)
(-0.1161877261 -0.1240446164 0)
(-0.08117075202 -0.1205733487 0)
(-0.04552359864 -0.09885481781 0)
(-0.0166677027 -0.06204943575 0)
(-0.001112880804 -0.01934213693 0)
(-0.001255760163 0.02901839863 0)
(-0.01222537927 0.07023337282 0)
(-0.02957243344 0.09665040008 0)
(-0.0506353325 0.1115683037 0)
(-0.07326255819 0.1175946718 0)
(-0.09627782644 0.1164763302 0)
(-0.1189186197 0.109070245 0)
(-0.1405416769 0.09555852595 0)
(-0.1604405666 0.07577201718 0)
(-0.1777104513 0.04954562289 0)
(-0.1911496454 0.01708198284 0)
(-0.1992139984 -0.0206666258 0)
(-0.2000629734 -0.06159012723 0)
(-0.1917605384 -0.1020274217 0)
(-0.1727265128 -0.1365216802 0)
(-0.1425398687 -0.158048574 0)
(-0.1031231838 -0.1592547888 0)
(-0.06003825211 -0.1353013141 0)
(-0.022942926 -0.08801460113 0)
(-0.001708079641 -0.02871996903 0)
(-0.001275397069 0.0354728114 0)
(-0.01256220118 0.08502196769 0)
(-0.03027731725 0.1162626648 0)
(-0.05166332891 0.1336489207 0)
(-0.07449472591 0.1406576982 0)
(-0.09766416904 0.1396028619 0)
(-0.1205643167 0.131624207 0)
(-0.1427581507 0.1169543995 0)
(-0.1637674469 0.09529298454 0)
(-0.1829036122 0.06620153148 0)
(-0.1991219705 0.02950638305 0)
(-0.2109070069 -0.0142584082 0)
(-0.2162226427 -0.06332866094 0)
(-0.2125899374 -0.114102134 0)
(-0.1974299039 -0.1605403611 0)
(-0.1688800653 -0.1939052069 0)
(-0.1273181186 -0.2035713363 0)
(-0.07762420207 -0.1801808107 0)
(-0.03131929825 -0.1220228212 0)
(-0.002626494998 -0.0417035872 0)
(-0.001277379077 0.0420405173 0)
(-0.01265161135 0.0999515085 0)
(-0.03022026607 0.1359110681 0)
(-0.05114303126 0.1555662191 0)
(-0.07313446329 0.1633833796 0)
(-0.09519087568 0.1623479866 0)
(-0.1169065445 0.153958195 0)
(-0.1381112349 0.1385462543 0)
(-0.1586414589 0.1157030628 0)
(-0.1781530845 0.08470428115 0)
(-0.1959429854 0.04493150653 0)
(-0.2107720141 -0.00365995817 0)
(-0.2207018126 -0.05994781054 0)
(-0.2229921434 -0.1208475533 0)
(-0.2142116365 -0.1803302092 0)
(-0.1908582854 -0.2284538126 0)
(-0.1509841596 -0.2512096473 0)
(-0.09737147369 -0.2331157701 0)
(-0.04207705733 -0.1655156356 0)
(-0.004019494716 -0.05953434802 0)
(-0.00131478667 0.04865043113 0)
(-0.01273479169 0.1146901934 0)
(-0.02973679827 0.1549486933 0)
(-0.04937059481 0.1763456892 0)
(-0.06930610026 0.1845004112 0)
(-0.08870308432 0.1831917914 0)
(-0.1074213563 0.1743603749 0)
(-0.1256195107 0.1585032735 0)
(-0.1435233269 0.1351585268 0)
(-0.1612424223 0.1033564849 0)
(-0.1785868012 0.0620357449 0)
(-0.1948537773 0.01049041046 0)
(-0.2085629878 -0.05103750825 0)
(-0.2171596399 -0.1204737646 0)
(-0.2167934234 -0.1926008626 0)
(-0.2024969793 -0.2572919236 0)
(-0.1695144127 -0.2978605615 0)
(-0.116989769 -0.2917683192 0)
(-0.05510123316 -0.2191461138 0)
(-0.00608829403 -0.08366586348 0)
(-0.001495989339 0.05543472445 0)
(-0.01329890951 0.129125717 0)
(-0.02952249771 0.1728035031 0)
(-0.04705706656 0.194928007 0)
(-0.06358317455 0.2025305497 0)
(-0.07855170661 0.2003203528 0)
(-0.09219430625 0.1907516252 0)
(-0.1050683656 0.1745451417 0)
(-0.1178407762 0.1512565733 0)
(-0.1311365735 0.1197550152 0)
(-0.1453839024 0.07861597439 0)
(-0.1606094173 0.02650521928 0)
(-0.1761315381 -0.03731657732 0)
(-0.1901127459 -0.1121681394 0)
(-0.1989831474 -0.1944914737 0)
(-0.1969795759 -0.2754120826 0)
(-0.1766755982 -0.3372941996 0)
(-0.132433336 -0.3510961141 0)
(-0.06944700571 -0.2818087861 0)
(-0.009077227461 -0.1155868383 0)
(-0.002026410803 0.06292082418 0)
(-0.01520320745 0.1435462733 0)
(-0.03073276584 0.1890605308 0)
(-0.04535612623 0.210198303 0)
(-0.05694829647 0.21582716 0)
(-0.06551471031 0.2117129166 0)
(-0.07183752095 0.200837615 0)
(-0.07695823576 0.1841571435 0)
(-0.08200855503 0.1612940011 0)
(-0.08812394952 0.1310521867 0)
(-0.09635302507 0.09178209295 0)
(-0.1075123899 0.0416746643 0)
(-0.1219212935 -0.02089111439 0)
(-0.13892059 -0.09673801572 0)
(-0.1560532388 -0.184596685 0)
(-0.1679121472 -0.2784002971 0)
(-0.1653948791 -0.3622224946 0)
(-0.1379029484 -0.4031854344 0)
(-0.08275769834 -0.3494444461 0)
(-0.0131953362 -0.1563583306 0)
(-0.003266845957 0.07231968583 0)
(-0.01982659232 0.1588316829 0)
(-0.03497019396 0.2034544942 0)
(-0.04560906579 0.2209035658 0)
(-0.05031979517 0.2225241068 0)
(-0.05015933795 0.2151709899 0)
(-0.04673099794 0.2022340675 0)
(-0.04165719139 0.1848144919 0)
(-0.03652603815 0.1625859459 0)
(-0.03291209606 0.1343528072 0)
(-0.0323818254 0.09839010444 0)
(-0.03644642398 0.05264985207 0)
(-0.04641096127 -0.005068638884 0)
(-0.06300763981 -0.07683214527 0)
(-0.08558295953 -0.1637768552 0)
(-0.1104831494 -0.2638203618 0)
(-0.1288132519 -0.3658479566 0)
(-0.1262518067 -0.4380466753 0)
(-0.09064751738 -0.4141484205 0)
(-0.01829252714 -0.205784495 0)
(-0.005717945718 0.08600821969 0)
(-0.02904902838 0.1765307136 0)
(-0.04372463461 0.2154921846 0)
(-0.04811581197 0.2251813118 0)
(-0.04279449669 0.2201637528 0)
(-0.03072950001 0.2080940184 0)
(-0.01467465668 0.1923912654 0)
(0.003107211944 0.1740524035 0)
(0.02064075352 0.1526885763 0)
(0.03605364112 0.1271093531 0)
(0.04744830742 0.09563128336 0)
(0.05283618198 0.05621170696 0)
(0.05014936396 0.00648100004 0)
(0.03740050863 -0.05628753087 0)
(0.01321368943 -0.1350703959 0)
(-0.02164171505 -0.2319904482 0)
(-0.06091629375 -0.3433911871 0)
(-0.08942401591 -0.4451175565 0)
(-0.08619260514 -0.4643309781 0)
(-0.02317096094 -0.2618647692 0)
(-0.009921244855 0.1090682834 0)
(-0.04431537819 0.1985362453 0)
(-0.05551465006 0.2229722645 0)
(-0.04748323035 0.2190849294 0)
(-0.02604904986 0.2046051904 0)
(0.002765297697 0.1867895264 0)
(0.03498194645 0.1682403209 0)
(0.06789745498 0.1493881077 0)
(0.09941461411 0.1295615776 0)
(0.1276435743 0.107525803 0)
(0.1506400935 0.08171746979 0)
(0.1662435916 0.05030001254 0)
(0.1719739256 0.01111755811 0)
(0.1650089762 -0.03852519584 0)
(0.1423254744 -0.102325717 0)
(0.1015478943 -0.1854790255 0)
(0.0440923351 -0.2927027134 0)
(-0.01837381452 -0.4143876847 0)
(-0.05979194476 -0.4852561928 0)
(-0.02497892226 -0.3207751237 0)
(-0.01764662977 0.1524027435 0)
(-0.06163921958 0.2238588349 0)
(-0.05374841711 0.2167715622 0)
(-0.01749038347 0.1929527651 0)
(0.03036761036 0.168334605 0)
(0.08160113996 0.1460803671 0)
(0.1324508253 0.1265586817 0)
(0.180806008 0.1091030865 0)
(0.2251872715 0.09256305736 0)
(0.2642422657 0.07564604411 0)
(0.2964231088 0.05700754787 0)
(0.3198012908 0.03517918106 0)
(0.3319095625 0.008521485287 0)
(0.3296464785 -0.02504866032 0)
(0.3091130719 -0.06871148096 0)
(0.2655875361 -0.1283649573 0)
(0.1947305185 -0.2148533557 0)
(0.09902647226 -0.3370780758 0)
(0.001960194891 -0.4557019247 0)
(-0.01656213044 -0.367705596 0)
(-0.02395808907 0.2088690116 0)
(-0.03744630875 0.2310115243 0)
(0.03753153813 0.176647157 0)
(0.1246012637 0.136300072 0)
(0.2042007602 0.1079673053 0)
(0.2749745176 0.08683882475 0)
(0.3377644337 0.07073968524 0)
(0.3930657934 0.05803080075 0)
(0.4411038071 0.04726184552 0)
(0.4816660975 0.03725556438 0)
(0.5142366008 0.02699223681 0)
(0.5375908954 0.0155336975 0)
(0.5497191945 0.001927941799 0)
(0.5478316982 -0.01495789638 0)
(0.5279597754 -0.03703133757 0)
(0.4844508562 -0.06822445532 0)
(0.4088462696 -0.1185877354 0)
(0.289220901 -0.2091930966 0)
(0.1321478814 -0.3382862939 0)
(0.03800816402 -0.3400150395 0)
(0.2420342394 0.1093142164 0)
(0.3140130852 0.09737599974 0)
(0.4451363986 0.05706584209 0)
(0.5503276968 0.03506091767 0)
(0.6242681014 0.02358172037 0)
(0.6790385918 0.01649272956 0)
(0.7220455032 0.01176005791 0)
(0.7565869508 0.008520236224 0)
(0.7843465538 0.006171532801 0)
(0.8061883709 0.004270442585 0)
(0.8223093551 0.002484473648 0)
(0.832304596 0.000579462104 0)
(0.8352433721 -0.001632417921 0)
(0.8296195995 -0.004302235618 0)
(0.8130085746 -0.007755958536 0)
(0.7813601383 -0.01269715318 0)
(0.7261749205 -0.02119625913 0)
(0.6302915963 -0.03818952762 0)
(0.4593859506 -0.08595285414 0)
(0.3048493285 -0.125790128 0)
)


// ************************************************************************* //
