/*--------------------------------*- C++ -*----------------------------------*\
  =========                 |
  \\      /  F ield         | OpenFOAM: The Open Source CFD Toolbox
   \\    /   O peration     | Website:  https://openfoam.org
    \\  /    A nd           | Version:  13
     \\/     M anipulation  |
\*---------------------------------------------------------------------------*/
FoamFile
{
    format      ascii;
    class       scalarField;
    location    "5.75";
    object      p_all;
}
// * * * * * * * * * * * * * * * * * * * * * * * * * * * * * * * * * * * * * //


400
(
3.072743291e-08
-0.000435021219
-0.000675414085
-0.0007091448217
-0.0005514065603
-0.0002330076389
0.0002114733679
0.0007494431814
0.001348742733
0.001974870888
0.002588895974
0.00314641325
0.003599123709
0.00389878204
0.004004048264
0.003890177455
0.00356142065
0.003068073519
0.002516893164
0.00200769515
0.0004678989063
5.366370946e-06
-0.0002554541736
-0.0003036317644
-0.0001843207521
7.658707559e-05
0.0004504813345
0.0009090796194
0.001423093462
0.001959860481
0.002482685778
0.002948977137
0.003313508063
0.003532554801
0.003571205553
0.003412993927
0.003069795648
0.002589594963
0.002090937137
0.001531779568
0.0007236055045
0.0002141192867
-7.583908406e-05
-0.0001255742354
-2.157580251e-05
0.0002079123669
0.0005380036572
0.0009455798989
0.001406198883
0.001890968665
0.002364914972
0.002786333524
0.00310912911
0.003288371289
0.003288339365
0.003092278627
0.002710822083
0.002185114176
0.001601725933
0.0008765917647
0.0006742428877
0.0001085169141
-0.0002175483628
-0.0002662955014
-0.0001640492409
5.532946611e-05
0.000368261121
0.0007567367778
0.001202285895
0.001680895767
0.002159316219
0.002594235557
0.002933465962
0.003122852336
0.003115655307
0.002884383561
0.00243048814
0.001787847253
0.00102060525
4.376048636e-05
0.0001923712197
-0.0004127483701
-0.0007584214604
-0.0007965889347
-0.0006858744966
-0.0004648918977
-0.0001550229799
0.0002327321367
0.0006885006345
0.001195688221
0.001724431821
0.002229844136
0.00264996708
0.002914208339
0.002953959884
0.002718314377
0.002188935143
0.001389165807
0.0003660732863
-0.0009382336494
-0.000836088294
-0.001459932967
-0.00181211299
-0.001834870033
-0.001715214978
-0.001494876115
-0.001190685446
-0.0008032350533
-0.0003292193066
0.0002276570611
0.0008460073634
0.001483428132
0.002067090549
0.002503224818
0.002687253363
0.002525299578
0.001959353661
0.0009902477158
-0.0003567570979
-0.002084345957
-0.002519581114
-0.00314291798
-0.003497005382
-0.003511342812
-0.003400408819
-0.00320747524
-0.00294186603
-0.00258895085
-0.002124968019
-0.001530906955
-0.0008082585506
1.595627505e-05
0.0008625387736
0.001611595985
0.00210561462
0.002176993087
0.001690716164
0.0005937569424
-0.001133749854
-0.003402431522
-0.004957638923
-0.005566574344
-0.005927014473
-0.005956573924
-0.005897272165
-0.005793281601
-0.005643941858
-0.005414022639
-0.005049622249
-0.004493492588
-0.003703760317
-0.002676004558
-0.001468531205
-0.0002212872583
0.0008403859897
0.001432029283
0.001276658118
0.000200208136
-0.001922074577
-0.004861845754
-0.008233240483
-0.008817701225
-0.009196975525
-0.009281418169
-0.009342641105
-0.009427567728
-0.009525360375
-0.009576208997
-0.009485702915
-0.009138634168
-0.008418369493
-0.007250917231
-0.005629048661
-0.003680780146
-0.001697688511
-0.0001281121284
0.0005105268532
-0.0002013448465
-0.002623652085
-0.00634428102
-0.01240076014
-0.01295174591
-0.01336422303
-0.01354869057
-0.01381336728
-0.01421422139
-0.01473447148
-0.01528987302
-0.01573801306
-0.01588649591
-0.01551128229
-0.01439958386
-0.01242176459
-0.009619982832
-0.006309956256
-0.003127709332
-0.0009498207486
-0.0006405864814
-0.003045172671
-0.007564815746
-0.01747856175
-0.01798279955
-0.01843082884
-0.0187411647
-0.01927579668
-0.02011226868
-0.02123784188
-0.02255002534
-0.02385761736
-0.02487732706
-0.02524289186
-0.02454483536
-0.02245313373
-0.01879817564
-0.01381780203
-0.00829120666
-0.003542988016
-0.001139662639
-0.002830778477
-0.00793960746
-0.02345647755
-0.02388461802
-0.02433403283
-0.02473490926
-0.02553900999
-0.02686531353
-0.02872015641
-0.03099406189
-0.03345371288
-0.03572252599
-0.03727520964
-0.03747383898
-0.03566447706
-0.03137952983
-0.02459755655
-0.01608338254
-0.007580258068
-0.001583343525
-0.001340669116
-0.006372907377
-0.03033302797
-0.03061039553
-0.03095046471
-0.03128600425
-0.03222794649
-0.03396342805
-0.0365337483
-0.03983287648
-0.043594165
-0.04735500017
-0.05043233245
-0.05194215163
-0.05087853655
-0.0463610061
-0.03793411366
-0.02608773403
-0.01275980698
-0.001401957285
0.002571421942
-0.000950552093
-0.03820965907
-0.03814294262
-0.03812217965
-0.03804225433
-0.03879787737
-0.04067375694
-0.04375482032
-0.04793809393
-0.05292334173
-0.05816726137
-0.06284041836
-0.06582614613
-0.06578347155
-0.0613763527
-0.05160426811
-0.03641401723
-0.01754614754
0.0009271940777
0.01093215061
0.01141765965
-0.04748383186
-0.04656201352
-0.04566967877
-0.04454623363
-0.04456792404
-0.04612944222
-0.04934437731
-0.0540877157
-0.06000322326
-0.06645479384
-0.07246778758
-0.07671345656
-0.0775548534
-0.07322954009
-0.06218780762
-0.04367083209
-0.0188377208
0.008362205273
0.0271603937
0.03540968384
-0.05933229801
-0.05624809805
-0.05349928998
-0.05033144291
-0.04885675631
-0.04952591462
-0.0524162799
-0.05731545315
-0.06375917521
-0.07098173501
-0.07782992144
-0.0827662116
-0.08388677395
-0.07904068887
-0.06620329467
-0.04387339944
-0.01246180722
0.0254650369
0.05647685139
0.07784354365
-0.07643236487
-0.06774714117
-0.061298863
-0.05469023435
-0.05088921287
-0.05015101824
-0.05236391304
-0.05711124019
-0.06373767199
-0.07127588792
-0.07837572137
-0.08325400569
-0.08373642202
-0.07728222768
-0.06142806026
-0.03402959129
0.005244258175
0.05756103514
0.1051514427
0.1471903198
-0.107620166
-0.08341902713
-0.0698252879
-0.05765573772
-0.05054352849
-0.04794422973
-0.04924262602
-0.05365090257
-0.06020560992
-0.06767948017
-0.07448261179
-0.07858295921
-0.07755152228
-0.06834429142
-0.04810247045
-0.01375071843
0.03652160493
0.1051089915
0.1761698939
0.2545649269
-0.1663587878
-0.09819305389
-0.07409218187
-0.05436464735
-0.04413414796
-0.04049087478
-0.0416531108
-0.04626730626
-0.0530487774
-0.06055766609
-0.06703714893
-0.0702905505
-0.06755669901
-0.05572660764
-0.03110297423
0.01069132229
0.07358961714
0.1640308861
0.2737952339
0.4354572872
-0.396390963
-0.1365654814
-0.07427154199
-0.04696430275
-0.03342787436
-0.02934307627
-0.03118006208
-0.03660679702
-0.04402599355
-0.05190033458
-0.05844434442
-0.06146334758
-0.05833126499
-0.04553426447
-0.0185972051
0.02898005617
0.1052139829
0.2312827388
0.4176740748
0.7778918827
)


// ************************************************************************* //
