/*--------------------------------*- C++ -*----------------------------------*\
  =========                 |
  \\      /  F ield         | OpenFOAM: The Open Source CFD Toolbox
   \\    /   O peration     | Website:  https://openfoam.org
    \\  /    A nd           | Version:  13
     \\/     M anipulation  |
\*---------------------------------------------------------------------------*/
FoamFile
{
    format      ascii;
    class       vectorField;
    location    "14.52";
    object      U_all;
}
// * * * * * * * * * * * * * * * * * * * * * * * * * * * * * * * * * * * * * //


400
(
(1.049767153e-05 -3.690271396e-05 0)
(-0.0006648019387 0.0004121471959 -1.536541636e-23)
(-0.002177970907 0.0009171056399 0)
(-0.004032586442 0.001307596871 0)
(-0.005948461467 0.001528805124 6.723570538e-25)
(-0.007732051646 0.001563419985 4.145248354e-24)
(-0.009248114407 0.001417832868 -6.937066064e-24)
(-0.01039598669 0.00111539871 8.001635936e-24)
(-0.01109586973 0.0006936290162 -2.136515351e-25)
(-0.01128783522 0.0002026346326 -4.059725257e-24)
(-0.01093676068 -0.0002988246237 5.878985631e-24)
(-0.01004383364 -0.0007447685818 -5.994566831e-23)
(-0.008659463836 -0.00107221408 -6.627188186e-23)
(-0.006891154771 -0.001229948828 -7.86750234e-23)
(-0.00490728736 -0.001190588419 4.6318565e-24)
(-0.002930392565 -0.0009614620058 -4.20514613e-24)
(-0.001212548321 -0.000592458755 -2.04850666e-22)
(-2.6929223e-05 -0.0001723747593 0)
(0.000512528202 0.0001690557681 1.753264113e-25)
(0.0002213114026 0.0003039845497 -5.752529536e-24)
(-0.000262273133 0.0008270771742 1.378418812e-25)
(-0.002691704424 0.003370449843 1.545863828e-23)
(-0.006876191773 0.005580140739 1.529248154e-25)
(-0.01189776969 0.006976988701 -8.333196484e-25)
(-0.01705684811 0.007520310167 1.135916647e-24)
(-0.02187614213 0.007262815388 1.267466626e-23)
(-0.02599523996 0.006296264294 1.797220828e-24)
(-0.02913995456 0.00473709052 -7.745012805e-24)
(-0.03109786508 0.002730219371 1.041071914e-23)
(-0.03171715359 0.0004559271457 4.585380289e-24)
(-0.03091363237 -0.001870768665 -6.40157844e-24)
(-0.02869596769 -0.004002180584 2.921917782e-24)
(-0.02519511196 -0.005683385585 3.931123823e-23)
(-0.0206785347 -0.006682285079 -1.985081987e-24)
(-0.01555839214 -0.006832842485 3.819750541e-24)
(-0.01037272757 -0.006083259127 -9.994679891e-23)
(-0.005731075038 -0.00454085238 9.903109472e-23)
(-0.00224020956 -0.002510410162 -4.445626365e-25)
(-0.0001880672922 -0.0005106155255 4.557893059e-25)
(8.250434985e-05 0.000603375973 0)
(-0.0004165244367 0.002923116272 -2.895045506e-25)
(-0.004624595813 0.008763811549 1.6925783e-23)
(-0.01131516037 0.01317806509 -8.162158784e-24)
(-0.01923159998 0.01571766073 -2.01218433e-25)
(-0.02733998362 0.01645379978 1.976828556e-25)
(-0.03494969658 0.01557544482 1.822530989e-26)
(-0.04151890687 0.01330559726 -1.615534205e-24)
(-0.04662430739 0.009885351483 -4.825898809e-25)
(-0.04993242531 0.005591080959 -1.090134796e-23)
(-0.05119932576 0.0007568076628 0)
(-0.0502798029 -0.004208077939 0)
(-0.0471631936 -0.008836607784 2.709828584e-23)
(-0.04201616444 -0.01262093441 2.853823237e-23)
(-0.03520560585 -0.01507297925 -1.679075268e-24)
(-0.02731565006 -0.01580494081 4.966969838e-23)
(-0.01912666061 -0.01462984966 9.665577454e-23)
(-0.01154161138 -0.01166836597 4.267701393e-23)
(-0.005461055071 -0.007444376157 5.126423193e-25)
(-0.001452931938 -0.002943621736 5.522205269e-26)
(-9.074626713e-05 0.0002163026763 0)
(-0.0004994170115 0.006017177105 -4.213068657e-23)
(-0.006368872751 0.01629130666 -1.682674094e-23)
(-0.01545443202 0.0234444055 8.088290528e-24)
(-0.02614534424 0.02730964875 0)
(-0.03710169747 0.02818915481 0)
(-0.04745873548 0.02647057934 0)
(-0.05652887582 0.02254032489 -5.990222572e-26)
(-0.06376211479 0.01677967445 -1.817536927e-24)
(-0.06870853398 0.009604815233 0)
(-0.07100964721 0.001513557845 1.736496196e-24)
(-0.07042672746 -0.006877869673 2.869041734e-25)
(-0.06687670025 -0.01484227092 -2.877078142e-25)
(-0.0604827698 -0.02156029191 0)
(-0.05163461052 -0.02620255337 4.251831761e-23)
(-0.0410224725 -0.02805417604 -4.79941025e-23)
(-0.02963545842 -0.0266866534 -2.9112968e-23)
(-0.01868966166 -0.02215680962 -4.257831762e-23)
(-0.009467346837 -0.0151923748 7.75801175e-25)
(-0.002972299097 -0.007297597315 9.407112255e-23)
(-0.0002313028598 -0.0008754560965 0)
(-0.000528407779 0.01004526833 4.233582058e-23)
(-0.007941719225 0.02582304589 4.774461729e-25)
(-0.01929761923 0.03624937004 -4.665515458e-25)
(-0.032659765 0.04165404465 0)
(-0.04641969156 0.04269702747 7.669797421e-25)
(-0.05956919372 0.0400268287 -7.563510831e-25)
(-0.07130512642 0.03421327115 3.60723192e-23)
(-0.08096883518 0.02577327139 1.776068742e-23)
(-0.08799163441 0.01524638647 5.988449968e-24)
(-0.09188038913 0.003277140043 -1.738521405e-24)
(-0.09224473559 -0.009323227825 0)
(-0.08884551132 -0.02154582993 4.546894364e-25)
(-0.08167054356 -0.03220772543 1.077375529e-23)
(-0.07102919904 -0.04003899919 -4.475916021e-23)
(-0.05763509611 -0.04385207634 2.019657603e-24)
(-0.04265563471 -0.0428034876 4.524500734e-23)
(-0.02767439803 -0.03672708703 -4.345165655e-25)
(-0.01451080943 -0.02646661013 0)
(-0.004847069504 -0.01406584421 5.401364342e-23)
(-0.0003627938047 -0.00285165382 -2.519141617e-22)
(-0.0005243788599 0.01492433468 9.81708473e-23)
(-0.009331750155 0.03720450407 -4.899802575e-25)
(-0.02277176697 0.05145045602 0)
(-0.03864819876 0.05866400921 0)
(-0.05513380213 0.05998528177 -8.671611925e-23)
(-0.07111305184 0.0563824979 -8.422784472e-23)
(-0.08569957822 0.04861915909 -3.995573662e-23)
(-0.09814694269 0.03732496685 -1.464490255e-23)
(-0.1077693847 0.02312016821 -5.145884262e-24)
(-0.1139144249 0.006746459152 -7.988219607e-24)
(-0.1159857753 -0.01082436071 6.390289726e-24)
(-0.113501322 -0.02831978915 8.419284822e-24)
(-0.1061965099 -0.04415572657 -1.872792276e-23)
(-0.09416768517 -0.05651422647 2.853955028e-24)
(-0.07802843266 -0.06354348726 0)
(-0.05905296335 -0.06371995573 -1.740433127e-23)
(-0.03922611986 -0.05636968192 3.206309519e-26)
(-0.02108196494 -0.04225012432 0)
(-0.007298119347 -0.02393530251 -1.47839058e-22)
(-0.0005195114199 -0.005921816622 5.959263031e-22)
(-0.0004970438884 0.02054432933 -9.750161481e-23)
(-0.01048361794 0.05020994861 2.820989629e-22)
(-0.02571879082 0.06879872584 1.520400978e-22)
(-0.04383667783 0.07813598865 3.598264499e-24)
(-0.06284988637 0.07994972292 -7.281935674e-23)
(-0.08158089448 0.07557928516 8.961647649e-23)
(-0.09910006208 0.06598350532 -3.557144923e-24)
(-0.1146044562 0.0518673636 -1.705749478e-24)
(-0.1273079755 0.03386659846 2.487771798e-24)
(-0.1363932683 0.01273979406 7.208691469e-24)
(-0.1410226898 -0.01046065693 -6.300549013e-24)
(-0.1403973422 -0.03425473439 -9.339159058e-24)
(-0.1338825334 -0.05666118679 -3.241868788e-23)
(-0.1212018054 -0.07522870037 -3.360208242e-23)
(-0.1026842923 -0.08722818897 5.027056742e-25)
(-0.07954889793 -0.0900986742 0)
(-0.05412254554 -0.08220284968 0)
(-0.02979233895 -0.06380933011 -2.833346706e-24)
(-0.01063406264 -0.03790242244 2.896170276e-24)
(-0.0007323396977 -0.01048431761 1.022751769e-22)
(-0.0004470579397 0.02674616642 0)
(-0.01130875861 0.06450782281 1.993334458e-22)
(-0.02791597152 0.08789931042 8.92357728e-23)
(-0.04782951263 0.09969239476 0)
(-0.06896814247 0.1022919201 1.560297014e-22)
(-0.09014314396 0.09745302459 0)
(-0.1104299024 0.0863283773 -1.417489124e-22)
(-0.1290157185 0.06965489421 6.457431225e-24)
(-0.1450564598 0.04800544644 0)
(-0.1576010713 0.02205058792 0)
(-0.1655795704 -0.007196264713 -1.353878617e-24)
(-0.1678470429 -0.03815606215 -9.10915977e-25)
(-0.1633130048 -0.06853084511 1.464630698e-22)
(-0.1511671892 -0.09522100803 -4.677439002e-23)
(-0.1312122936 -0.1144451867 -2.481464799e-24)
(-0.1043222439 -0.1221980299 1.459918848e-24)
(-0.0729272868 -0.1152297748 -1.482939677e-24)
(-0.04125483779 -0.09259356638 0)
(-0.01521584494 -0.057274522 3.159716242e-24)
(-0.001040918585 -0.01711339594 -1.001166997e-21)
(-0.0003750699766 0.03331630881 0)
(-0.01172013792 0.07964339263 -1.123646837e-22)
(-0.02912951474 0.108182778 -6.165189931e-22)
(-0.05018278165 0.1227289483 -3.738169519e-22)
(-0.07277054758 0.1264336954 0)
(-0.09574372143 0.1215102473 4.095121434e-22)
(-0.1182366292 0.1093100673 1.251293572e-22)
(-0.1394894622 0.09056732932 -5.535689145e-24)
(-0.158673529 0.06571837138 5.508291664e-24)
(-0.1747847853 0.03523470658 0)
(-0.1865917498 -5.44792518e-05 2.886879747e-23)
(-0.1926593701 -0.03864986557 4.640396078e-24)
(-0.1914386552 -0.07810269483 -1.060816985e-22)
(-0.1814702264 -0.1147843134 7.855460022e-23)
(-0.1617760105 -0.1438206085 -2.384244008e-22)
(-0.1324738013 -0.1594146816 0)
(-0.09560705814 -0.1559134368 0)
(-0.05591189987 -0.1299879121 0)
(-0.02143604771 -0.08362426194 0)
(-0.001496376648 -0.02660032924 5.511308634e-22)
(-0.0002895898798 0.04000097932 0)
(-0.01167865787 0.09505909856 -3.478890585e-22)
(-0.02919972402 0.128909169 8.896703677e-22)
(-0.05052627818 0.1463899824 3.600633273e-22)
(-0.07357717084 0.1514555407 0)
(-0.09729051114 0.1468232888 -3.839823449e-22)
(-0.1209152088 0.1340654346 -3.1547184e-23)
(-0.1438181495 0.1139039454 3.312661401e-22)
(-0.1652857215 0.08659219359 1.758109503e-22)
(-0.1843891141 0.05231135537 -4.033543085e-23)
(-0.1998949576 0.01155881297 1.650939593e-23)
(-0.2102262332 -0.03446304505 -8.194391536e-24)
(-0.2134888952 -0.08342097114 3.346542356e-22)
(-0.2075966108 -0.1314573145 0)
(-0.1906116665 -0.1728084893 2.385395698e-22)
(-0.1614441797 -0.1997760094 5.668471579e-24)
(-0.1210138337 -0.2035559597 -5.752997315e-24)
(-0.07374867209 -0.1768364187 1.514979863e-22)
(-0.02967257328 -0.1186221217 -5.336670895e-24)
(-0.002175007866 -0.0399752493 0)
(-0.0002154639928 0.04655303787 0)
(-0.01125309935 0.1101608453 0)
(-0.02815214836 0.1492184122 -5.002904927e-22)
(-0.04872601887 0.1695898114 -1.87349432e-23)
(-0.07096446809 0.1760854953 2.028635434e-23)
(-0.09394179759 0.1719836007 -2.004683532e-23)
(-0.1170788067 0.1591227069 -2.303955804e-23)
(-0.139947221 0.1382402095 -3.011099653e-22)
(-0.1620613962 0.1094072032 6.681067918e-23)
(-0.1827269641 0.07247212401 4.483267744e-23)
(-0.2009174663 0.02748919649 -4.546521494e-23)
(-0.2151611129 -0.02484134433 0)
(-0.2234853247 -0.08264896695 -7.732852487e-23)
(-0.2233817416 -0.1423189964 0)
(-0.211973283 -0.1977217308 -3.713945068e-22)
(-0.1866391833 -0.239587696 5.200035095e-22)
(-0.1463420486 -0.2555949707 0)
(-0.09386535484 -0.2327007327 -1.461519851e-22)
(-0.0401777226 -0.1636713115 1.90400007e-22)
(-0.003196277029 -0.05850734654 -3.378185435e-22)
(-0.0002065976326 0.05281960573 0)
(-0.01069489098 0.1244382782 9.15238671e-22)
(-0.02632457442 0.1682329079 -2.432097198e-23)
(-0.04506344651 0.191088592 9.161221127e-22)
(-0.06500658306 0.1987566969 -2.502313576e-23)
(-0.08543411767 0.1951482889 2.825955571e-23)
(-0.1060071171 0.182434357 -2.800159706e-23)
(-0.1265803852 0.1614306659 -1.65278328e-23)
(-0.1470010216 0.1320799816 -5.23474281e-22)
(-0.1669599505 0.09392558082 -8.862782662e-24)
(-0.1858530639 0.04654628878 9.613562122e-24)
(-0.2026024631 -0.01000400505 3.2995219e-22)
(-0.2155296684 -0.07468814283 -5.793299586e-22)
(-0.2221111742 -0.1446604403 0)
(-0.2188581074 -0.2142568874 8.838244981e-22)
(-0.2016398565 -0.2735474165 -4.898672458e-22)
(-0.1668425124 -0.3071154898 -1.558808417e-23)
(-0.1139830306 -0.2949507261 0)
(-0.05285380426 -0.2192599306 -1.857199505e-22)
(-0.004744593646 -0.08364785494 3.327822846e-22)
(-0.0003702181241 0.05888473445 1.545990901e-23)
(-0.01053630089 0.1376416355 -8.735112569e-22)
(-0.02449722061 0.1852057387 -1.153680214e-21)
(-0.04039012305 0.2096144908 -8.598856572e-22)
(-0.05646445741 0.217730283 0)
(-0.07233585378 0.2141865593 3.500122813e-23)
(-0.08800689369 0.2015538979 -7.265893199e-23)
(-0.1036967426 0.1808007328 5.844084368e-23)
(-0.1196624116 0.1518274607 3.007885654e-22)
(-0.1360763091 0.1139607181 -1.123666613e-23)
(-0.1529034418 0.06635949325 0)
(-0.1697478051 0.00839962716 -3.588971749e-22)
(-0.1855578051 -0.05988032815 7.489511561e-22)
(-0.1982963552 -0.136954124 8.805178438e-22)
(-0.2045580669 -0.2185725362 -5.2717933e-22)
(-0.1992391159 -0.2955877355 5.142524961e-22)
(-0.1761355281 -0.3510012885 1.066863568e-23)
(-0.1301079444 -0.3580167607 -1.083995145e-23)
(-0.06687764955 -0.2840052116 -8.500593401e-23)
(-0.007079869046 -0.1168575028 0)
(-0.0009161545679 0.06528928891 -1.906091583e-23)
(-0.01173187758 0.149988207 -1.323638586e-21)
(-0.02400967863 0.1996517381 1.091058177e-21)
(-0.0361986197 0.2239566755 6.717645192e-22)
(-0.04681602493 0.2312084205 5.998385348e-22)
(-0.05606291754 0.2268554436 6.624590033e-22)
(-0.06444592269 0.2138945483 -4.443549372e-23)
(-0.07264280991 0.1934859951 -3.450667467e-22)
(-0.08136321085 0.1655585639 2.145595927e-22)
(-0.09128251828 0.1293341695 0)
(-0.1029729304 0.08368104344 0)
(-0.1167764126 0.02741196782 2.649093692e-22)
(-0.1325559319 -0.04037101803 8.214837108e-23)
(-0.1492893008 -0.1197446565 -2.808236519e-22)
(-0.164441581 -0.2086498107 -5.397637662e-23)
(-0.1730320082 -0.3004041937 1.305638375e-22)
(-0.1671943295 -0.3790165996 -3.385737707e-22)
(-0.136609908 -0.4133180463 -1.716761653e-23)
(-0.08019969582 -0.3535420158 8.488973322e-23)
(-0.01050660795 -0.1592724522 -6.050669545e-22)
(-0.002267085451 0.07341222565 0)
(-0.01586976371 0.1624282281 2.140852167e-21)
(-0.02679808225 0.2114576701 0)
(-0.03445488871 0.2330100077 -1.348719265e-21)
(-0.03790168545 0.2373986746 6.203754807e-23)
(-0.03836868864 0.2309323165 -6.174962681e-22)
(-0.03710255218 0.2169539908 -4.7436981e-22)
(-0.0353450741 0.1967674495 8.277640347e-22)
(-0.03426517501 0.1703127477 -1.879880255e-22)
(-0.03498268266 0.1367950764 0)
(-0.03859541771 0.09494371882 0)
(-0.0461145777 0.04323849762 2.420979771e-23)
(-0.05834864071 -0.01991829039 -5.994586513e-22)
(-0.07555193914 -0.09598521787 -4.30067074e-22)
(-0.09681010868 -0.1853414096 4.632147624e-22)
(-0.1186412878 -0.2851468045 -6.47260184e-22)
(-0.1334896641 -0.3836191134 9.052180017e-23)
(-0.1266637131 -0.4502040322 3.065986834e-23)
(-0.08903592439 -0.4196252612 5.666157247e-22)
(-0.01527169271 -0.2110453497 6.039267113e-22)
(-0.005186565913 0.08594187595 0)
(-0.0253233993 0.1764840873 1.467185065e-22)
(-0.03499087287 0.220358317 -4.908312467e-23)
(-0.0366515601 0.2351960442 7.627368113e-22)
(-0.03052378918 0.2340472715 -6.990021223e-22)
(-0.019578373 0.223905788 4.735656286e-23)
(-0.006074147053 0.2081669738 -1.017915279e-22)
(0.008078613905 0.1880242218 -3.380936605e-22)
(0.02128936353 0.1633787936 2.058300555e-22)
(0.03212485667 0.1333909647 0)
(0.03910069064 0.09676901232 0)
(0.04071596468 0.05190722282 -2.897387718e-22)
(0.03536321702 -0.003075067367 0)
(0.02159813772 -0.07040624837 -5.507345516e-22)
(-0.00160361905 -0.1524129453 -1.464796526e-23)
(-0.03338974928 -0.2504523281 2.556545992e-23)
(-0.06932022495 -0.3597965406 2.195576529e-22)
(-0.09242745888 -0.4574086881 4.814470328e-24)
(-0.08724147435 -0.4696629571 -5.795710842e-22)
(-0.02103761805 -0.2697993548 0)
(-0.01111931972 0.1085939705 0)
(-0.04254455204 0.1946466681 -8.834467729e-22)
(-0.04809270565 0.2256776576 -5.405325218e-22)
(-0.03942445728 0.2280215923 4.538956141e-22)
(-0.01909525158 0.2180272823 -1.716272076e-24)
(0.007272856581 0.2026364501 -4.554025168e-23)
(0.03623716682 0.1846238735 5.685020264e-22)
(0.06535677832 0.1646301338 -2.761160153e-23)
(0.09278795169 0.1422981314 -2.065168161e-22)
(0.1169177734 0.1166741984 3.136436936e-23)
(0.1361014225 0.08650710283 -3.420486941e-23)
(0.1485585212 0.05030409018 -3.686164516e-23)
(0.1521638625 0.006299364045 3.202489924e-22)
(0.1446203876 -0.04782648733 6.114413057e-22)
(0.1232429979 -0.1151898853 -5.097859503e-22)
(0.08611043358 -0.200328914 -1.616562492e-22)
(0.0317938122 -0.3067106271 1.529372445e-22)
(-0.02376217418 -0.4239132656 7.293670337e-23)
(-0.06498115859 -0.4870812482 1.913024006e-21)
(-0.02510758184 -0.3290918879 2.954686835e-21)
(-0.02004477419 0.1460913325 -4.386701727e-23)
(-0.06418963726 0.2112838717 4.413844836e-23)
(-0.05078433181 0.2176679096 9.993716653e-22)
(-0.01949448964 0.2013636001 -8.09453952e-24)
(0.02391485617 0.1807833743 0)
(0.07124101506 0.1605731267 4.357450715e-23)
(0.1187170099 0.1415538294 -2.269947902e-22)
(0.1640898607 0.1232577879 -9.011366716e-23)
(0.2058253762 0.104794039 3.67365453e-23)
(0.242572943 0.08509482544 -1.698518061e-23)
(0.2728549155 0.06301891263 3.424533796e-23)
(0.2949273862 0.03734315539 -6.584492829e-23)
(0.3064130453 0.006625165189 -9.292893414e-23)
(0.3047343267 -0.0307909679 1.516265717e-22)
(0.2861987688 -0.0777909402 0)
(0.2469016257 -0.1398803313 1.506332841e-22)
(0.180966525 -0.2266075707 2.559284741e-22)
(0.09595056571 -0.3443616124 0)
(-0.006745576382 -0.4551914207 -3.675099014e-21)
(-0.01923194006 -0.3777263742 -2.892320444e-21)
(-0.02591376672 0.2277024386 -9.512216351e-22)
(-0.03997413078 0.2238351326 -1.388309315e-22)
(0.03655116562 0.1810466263 -2.333608338e-22)
(0.108998906 0.1450686916 -1.192454856e-22)
(0.1816134735 0.1171908522 -4.293686276e-23)
(0.2488457405 0.09622219514 9.772281739e-23)
(0.3098201886 0.07997663329 -1.406453488e-22)
(0.3643712452 0.0665355829 1.29485891e-22)
(0.4123565973 0.05447975781 -8.603691792e-23)
(0.4533562246 0.04271762666 1.131570878e-25)
(0.4865355855 0.03034909184 1.525588308e-23)
(0.5105222309 0.01656688858 7.987269794e-23)
(0.5234758344 0.0005767696192 -1.809527791e-22)
(0.5230397764 -0.01859454869 -1.616361456e-22)
(0.5051294309 -0.04283313401 -4.261859507e-23)
(0.4657990979 -0.07631242748 0)
(0.3952171851 -0.1286027448 -1.844876076e-22)
(0.2915675633 -0.2208449936 8.147012722e-22)
(0.119721583 -0.3525000467 1.631336655e-21)
(0.02669942029 -0.3775462239 2.172516668e-21)
(0.2142954302 0.134750602 9.862799493e-22)
(0.2776497625 0.09871257879 0)
(0.4316800196 0.058107683 -2.5932202e-22)
(0.5304835587 0.03846145234 -1.741002939e-22)
(0.6016807969 0.02622942912 0)
(0.657073943 0.01831319573 -6.002949013e-23)
(0.7014469452 0.01313085902 6.368002784e-23)
(0.737508519 0.009539290565 -1.796500307e-23)
(0.7668299487 0.006804838813 2.880200754e-23)
(0.7901039954 0.004468314514 2.310623846e-23)
(0.8073593807 0.002227429709 0)
(0.8181841027 -0.0001423933698 -2.869217089e-23)
(0.8215944154 -0.002715726848 0)
(0.8162072091 -0.005706562434 2.736191527e-23)
(0.7991196021 -0.009607788803 1.422621255e-23)
(0.7679972498 -0.01500157767 -5.797472768e-23)
(0.7106589301 -0.02502678609 -2.534688242e-22)
(0.6235205397 -0.04204470964 -6.916724494e-22)
(0.4230088663 -0.09183161203 0)
(0.27056689 -0.1524030586 -2.119347295e-21)
)


// ************************************************************************* //
