/*--------------------------------*- C++ -*----------------------------------*\
  =========                 |
  \\      /  F ield         | OpenFOAM: The Open Source CFD Toolbox
   \\    /   O peration     | Website:  https://openfoam.org
    \\  /    A nd           | Version:  13
     \\/     M anipulation  |
\*---------------------------------------------------------------------------*/
FoamFile
{
    format      ascii;
    class       scalarField;
    location    "15.7";
    object      p_all;
}
// * * * * * * * * * * * * * * * * * * * * * * * * * * * * * * * * * * * * * //


400
(
-4.042500462e-08
-0.0005449309674
-0.0008847100761
-0.001010290261
-0.0009299190379
-0.0006758514091
-0.0002855858489
0.00020495357
0.0007593248078
0.001337149773
0.001892905715
0.002373872506
0.002724765187
0.002892574612
0.002835782943
0.002536296161
0.002014327606
0.001326846661
0.0006698989018
7.533831174e-05
0.0005864210424
7.664675198e-06
-0.0003539566254
-0.0004944362009
-0.0004620974815
-0.0002834808636
1.205231204e-05
0.0003952300273
0.0008346727232
0.001293179062
0.001731020659
0.002097140347
0.002341254059
0.002416074713
0.002287732735
0.001947335765
0.001421398743
0.0007746976599
0.0001789420037
-0.0004825874422
0.0009492364988
0.0003074457495
-9.166915702e-05
-0.0002361352858
-0.000228151253
-9.777793499e-05
0.0001309328424
0.0004366548899
0.0007956493395
0.001176142394
0.001545609861
0.001850804804
0.002041688999
0.00206960527
0.001899430627
0.001521245266
0.0009588180553
0.0002684486873
-0.0004281448129
-0.001263388567
0.0009721110415
0.0002567223198
-0.0001912402995
-0.0003415793321
-0.0003487221812
-0.0002494541349
-6.448831531e-05
0.0001934793829
0.0005107807645
0.0008669403166
0.001221458852
0.00153088918
0.001734737265
0.00177261305
0.00159570497
0.001180581561
0.0005389084302
-0.0002827831953
-0.001195782559
-0.002343800381
0.0004772165874
-0.0002854706881
-0.0007619993722
-0.0009115975939
-0.0009301333017
-0.000858844688
-0.0007128793968
-0.0004928965113
-0.0001988140494
0.0001599431153
0.0005530254249
0.0009321964057
0.001226433495
0.0013550452
0.001241760148
0.0008334418509
0.000115990196
-0.0008786652254
-0.002085804917
-0.003610881896
-0.0006866013266
-0.001464787547
-0.001951459218
-0.002100162879
-0.002139908222
-0.002112900563
-0.002024531897
-0.001857950544
-0.001592243627
-0.001217237858
-0.0007485278442
-0.000230597684
0.0002541295373
0.0005961232152
0.0006737717762
0.0003791948004
-0.0003530638024
-0.001521227544
-0.003088717814
-0.005091787109
-0.002656375496
-0.003415954282
-0.003905484755
-0.004068119928
-0.004161663389
-0.004225969949
-0.004251744196
-0.004197475814
-0.004011206592
-0.003649539649
-0.00309815628
-0.00238278904
-0.001589174321
-0.0008593225761
-0.0003810058767
-0.0003546818127
-0.0009431003092
-0.002213130437
-0.004181834426
-0.006772677459
-0.005541205979
-0.006254664043
-0.006750668892
-0.006961329483
-0.00716983931
-0.00741156313
-0.007658393192
-0.007836600168
-0.00785045045
-0.007604140669
-0.007027982561
-0.006098966222
-0.004883919933
-0.003547072919
-0.002358758328
-0.00166159862
-0.001791263444
-0.002962126515
-0.005312487306
-0.008601324295
-0.009410790059
-0.01005646539
-0.01057110319
-0.01087939823
-0.01128867607
-0.01183069387
-0.01245724647
-0.01305678005
-0.01347704178
-0.01354649837
-0.01310181705
-0.01203964977
-0.01034837824
-0.008180992365
-0.005886206607
-0.003997280778
-0.003129634101
-0.003783971606
-0.006365502065
-0.01042607309
-0.01428046158
-0.01483970583
-0.01538455909
-0.01583919252
-0.01653964014
-0.01752017462
-0.01871620431
-0.01997745277
-0.02108620603
-0.02177476768
-0.0217540943
-0.02076808041
-0.01867045142
-0.01552455346
-0.01170771775
-0.007958936449
-0.005289315255
-0.004694338852
-0.007115710639
-0.01191032254
-0.02010556756
-0.02055704802
-0.02112535031
-0.02174228899
-0.02278925012
-0.02431648029
-0.02625285293
-0.02841470482
-0.03051750223
-0.03218497135
-0.03297186492
-0.03241664881
-0.03016194374
-0.02606542118
-0.02042177319
-0.01411245125
-0.0086112527
-0.005654675125
-0.007150722953
-0.01239653074
-0.02679620607
-0.0271042803
-0.02764337908
-0.02835876548
-0.02971617486
-0.0318043345
-0.03456071325
-0.03777815997
-0.04111085812
-0.04407358541
-0.04605243072
-0.04634386461
-0.04433226246
-0.03953733256
-0.03200926036
-0.02259962164
-0.01318031187
-0.006410569714
-0.005739763583
-0.01069802665
-0.03426547252
-0.03435226863
-0.03472326156
-0.0353340969
-0.03681310505
-0.03931964021
-0.04281629401
-0.04708086083
-0.05171232264
-0.05612354572
-0.05954246044
-0.06105553037
-0.05965100339
-0.05453661027
-0.04533296723
-0.03260348981
-0.0183689875
-0.006172820685
-0.001609253517
-0.004813769435
-0.04253491117
-0.04220886711
-0.04212623534
-0.04222394812
-0.04343481547
-0.04602690986
-0.04999746555
-0.05510621724
-0.06089132425
-0.06666746585
-0.07151181701
-0.07429013464
-0.07371905194
-0.0685726546
-0.05798123479
-0.04198155157
-0.02236928797
-0.003194914958
0.007401412718
0.008388840055
-0.05193393577
-0.05068986249
-0.04960979143
-0.04851068091
-0.04885377669
-0.05103806729
-0.05507876927
-0.0606914027
-0.06732215516
-0.07417355494
-0.08016955661
-0.08397171598
-0.08403907985
-0.07876010793
-0.06677855649
-0.04746899289
-0.02208016788
0.0055440066
0.02475264327
0.03355788898
-0.0635829054
-0.06012223406
-0.05703574584
-0.05370536006
-0.05240392843
-0.05361053738
-0.05728199543
-0.06304838834
-0.07016286551
-0.0776993319
-0.08439598475
-0.08870058078
-0.08883036043
-0.08278746503
-0.06881413056
-0.04559472902
-0.01373295022
0.02443427921
0.05555517212
0.07736755191
-0.08012216842
-0.0710173643
-0.06407135245
-0.05712075981
-0.05338587603
-0.05316216723
-0.05619376592
-0.06183690432
-0.06917310281
-0.0770289809
-0.08392952573
-0.088081039
-0.08742512423
-0.07962268828
-0.06246394664
-0.03404873604
0.00555140474
0.05859827287
0.1058192246
0.1480624634
-0.1104566563
-0.08581097709
-0.07157276733
-0.0589441007
-0.05188613122
-0.04984667026
-0.05205302344
-0.05744559074
-0.0647864321
-0.07263212564
-0.07926830171
-0.08265399676
-0.080479712
-0.0698644677
-0.04822825975
-0.01273302124
0.0382164822
0.1071137336
0.177960087
0.2564569667
-0.1683992321
-0.09987634535
-0.07498819212
-0.05478471369
-0.04460449098
-0.04156133871
-0.04367965089
-0.04932903052
-0.05695361477
-0.06490256641
-0.07129641712
-0.07392467381
-0.07008843811
-0.05699325731
-0.03102650849
0.01191665435
0.07557723773
0.1663792821
0.2761364425
0.4376803543
-0.39839135
-0.1380703465
-0.07495394552
-0.04708014742
-0.03354059052
-0.03001233159
-0.03277056207
-0.03921878098
-0.04750100444
-0.05587586796
-0.06243839805
-0.06497602243
-0.0609552345
-0.04694697909
-0.01875110153
0.02992687643
0.1069372793
0.2334047628
0.4198566911
0.7800008353
)


// ************************************************************************* //
