/*--------------------------------*- C++ -*----------------------------------*\
  =========                 |
  \\      /  F ield         | OpenFOAM: The Open Source CFD Toolbox
   \\    /   O peration     | Website:  https://openfoam.org
    \\  /    A nd           | Version:  13
     \\/     M anipulation  |
\*---------------------------------------------------------------------------*/
FoamFile
{
    format      ascii;
    class       vectorField;
    location    "15.7";
    object      U_all;
}
// * * * * * * * * * * * * * * * * * * * * * * * * * * * * * * * * * * * * * //


400
(
(1.070320964e-05 -3.726503831e-05 0)
(-0.0006653020758 0.000412494219 -1.541002857e-23)
(-0.002180867347 0.0009183909968 0)
(-0.004038555693 0.001309626401 0)
(-0.005957631295 0.001531258369 6.769341849e-25)
(-0.007744095915 0.001565941045 4.14755391e-24)
(-0.00926239704 0.001420082009 -7.101691735e-24)
(-0.01041165556 0.001117096691 7.823640043e-24)
(-0.01111193082 0.0006945926177 -2.120928234e-25)
(-0.0113032437 0.000202808212 -4.035009732e-24)
(-0.0109504959 -0.0002993774165 5.850254569e-24)
(-0.01005500949 -0.0007458470704 -5.969702177e-23)
(-0.00866746558 -0.001073528305 -6.598547159e-23)
(-0.006895729773 -0.00123116316 -7.83542185e-23)
(-0.004908620208 -0.001191391376 4.609305286e-24)
(-0.002929127639 -0.0009616386693 -4.17905696e-24)
(-0.001209679511 -0.0005919642568 -2.029158147e-22)
(-2.38258239e-05 -0.0001713904227 0)
(0.0005147463692 0.0001702511753 1.658255636e-25)
(0.0002218786789 0.0003047701595 -4.503673897e-24)
(-0.0002627004695 0.0008278158218 1.381292953e-25)
(-0.002696249295 0.003375691084 1.550423756e-23)
(-0.006888372517 0.00558968548 1.536864065e-25)
(-0.01191915445 0.006989227873 -8.392455756e-25)
(-0.01708751186 0.007533437724 1.14557131e-24)
(-0.02191505813 0.007275134162 1.282261801e-23)
(-0.02604056736 0.006306330887 1.643753819e-24)
(-0.02918928839 0.004743812658 -7.570560173e-24)
(-0.03114845771 0.002732947274 1.031320957e-23)
(-0.03176617945 0.0004545430466 4.556818565e-24)
(-0.03095839099 -0.001876021714 -6.370116462e-24)
(-0.02873413638 -0.00401037088 2.937547952e-24)
(-0.02522505766 -0.005693195984 3.917510268e-23)
(-0.02069949566 -0.006692156292 -1.973375277e-24)
(-0.01557063302 -0.006841207697 3.794513805e-24)
(-0.01037756685 -0.006088833233 -9.896275121e-23)
(-0.005730724853 -0.004542935334 9.800029325e-23)
(-0.002237493831 -0.002509217182 -4.257153882e-25)
(-0.0001855809705 -0.0005073583544 4.364629436e-25)
(8.287155873e-05 0.0006059589229 0)
(-0.0004174284284 0.002927798642 -2.902477133e-25)
(-0.004633726192 0.008779569294 1.698272752e-23)
(-0.0113374415 0.01320251915 -8.193670551e-24)
(-0.01926914583 0.01574684397 -2.034555041e-25)
(-0.02739262484 0.01648371334 1.998786984e-25)
(-0.03501568243 0.01560253661 1.39815263e-26)
(-0.04159529904 0.01332697234 -1.467408464e-24)
(-0.04670734968 0.0098988966 -4.722876208e-25)
(-0.05001787344 0.005595569237 -1.07991432e-23)
(-0.05128302829 0.0007519715309 0)
(-0.05035766933 -0.004221305409 0)
(-0.04723153642 -0.008856479888 2.69495348e-23)
(-0.04207242001 -0.01264484633 2.838120119e-23)
(-0.03524835569 -0.01509777454 -1.666330537e-24)
(-0.02734484778 -0.01582732922 4.920013391e-23)
(-0.01914369853 -0.0146469389 9.570042169e-23)
(-0.01154917076 -0.0116782697 4.154173652e-23)
(-0.00546274466 -0.007446853008 4.74343066e-25)
(-0.001452197605 -0.002940615041 7.55170741e-26)
(-9.073674059e-05 0.0002200810049 0)
(-0.0005006153334 0.006028219819 -4.228843515e-23)
(-0.006382168987 0.016322468 -1.688414806e-23)
(-0.01548607348 0.02348950313 8.120091126e-24)
(-0.02619787603 0.02736146145 0)
(-0.03717466401 0.02824095314 0)
(-0.04754974339 0.02651662471 0)
(-0.05663410395 0.02257607551 -5.418493569e-26)
(-0.06387679636 0.01680190035 -1.938186456e-24)
(-0.0688273936 0.009611700132 0)
(-0.07112710965 0.001504767347 1.69783342e-24)
(-0.07053760297 -0.006900885673 2.843605557e-25)
(-0.06697652536 -0.01487682212 -2.851569971e-25)
(-0.06056788191 -0.0216023612 0)
(-0.05170264784 -0.02624719621 4.20592368e-23)
(-0.04107261985 -0.02809607926 -4.753721005e-23)
(-0.02966859973 -0.02672089456 -2.853257142e-23)
(-0.01870834106 -0.02217979983 -4.14236366e-23)
(-0.009475470715 -0.01520290468 7.772926429e-25)
(-0.002974092766 -0.007297798895 9.556424852e-23)
(-0.000231529089 -0.0008717845174 0)
(-0.0005296699847 0.01006478366 4.249424856e-23)
(-0.007958173062 0.02587373307 4.775727706e-25)
(-0.01933662173 0.03631982945 -4.666725044e-25)
(-0.03272424495 0.0417330629 0)
(-0.04650901015 0.04277477962 7.711499876e-25)
(-0.05968052199 0.04009523041 -7.604619718e-25)
(-0.07143406588 0.03426608175 3.631851201e-23)
(-0.08110996869 0.02580614411 1.803455251e-23)
(-0.08813898663 0.01525693988 6.084298604e-24)
(-0.09202775417 0.003265027935 -1.699813072e-24)
(-0.09238613175 -0.009356447172 0)
(-0.08897550137 -0.02159652362 4.478770278e-25)
(-0.08178447948 -0.03227055582 1.050881102e-23)
(-0.07112360512 -0.04010727193 -4.426887587e-23)
(-0.05770800747 -0.04391834596 1.985983348e-24)
(-0.04270691658 -0.04286047451 4.405067578e-23)
(-0.02770594412 -0.03676894021 -4.149403379e-25)
(-0.01452648252 -0.0264904312 0)
(-0.004851943936 -0.01407316962 5.415165529e-23)
(-0.000363326257 -0.002849783522 -2.537071727e-22)
(-0.0005254992197 0.01495375517 9.824675218e-23)
(-0.009349911226 0.03727743789 -4.90136114e-25)
(-0.02281505752 0.05154936521 0)
(-0.03871989187 0.05877320133 0)
(-0.05523326723 0.06009164586 -8.694367858e-23)
(-0.07123732416 0.05647558139 -8.451764403e-23)
(-0.08584406782 0.0486910703 -4.022816035e-23)
(-0.09830603177 0.03737028823 -1.479684394e-23)
(-0.1079368833 0.02313592619 -5.231267769e-24)
(-0.1140838989 0.006732116776 -8.060428571e-24)
(-0.11615087 -0.01086698662 6.471971218e-24)
(-0.1136560239 -0.02838650776 8.577406506e-24)
(-0.1063353669 -0.04424023159 -1.880454168e-23)
(-0.0942861122 -0.05660836127 3.535923843e-24)
(-0.0781231155 -0.06363779407 0)
(-0.05912235006 -0.06380461867 -1.675277321e-23)
(-0.03927094138 -0.05643601797 1.01325118e-26)
(-0.02110558212 -0.0422926166 0)
(-0.007306227993 -0.02395377552 -1.494862936e-22)
(-0.0005203397162 -0.005923265474 5.997136446e-22)
(-0.0004978492958 0.02058416847 -9.757722369e-23)
(-0.01050168793 0.05030599453 2.825074625e-22)
(-0.02576241451 0.06892701865 1.522821811e-22)
(-0.04390942086 0.07827621696 3.606177481e-24)
(-0.06295132357 0.08008549397 -7.296472869e-23)
(-0.08170822904 0.07569787909 8.992759112e-23)
(-0.09924888539 0.0660755219 -3.569803967e-24)
(-0.1147693746 0.05192644243 -1.714790389e-24)
(-0.1274830603 0.03388923892 2.501832597e-24)
(-0.1365723599 0.0127252283 7.27593126e-24)
(-0.1411995934 -0.01051059085 -6.378163028e-24)
(-0.1405660261 -0.03433557717 -9.513414906e-24)
(-0.1340372546 -0.05676612059 -3.249699027e-23)
(-0.121337253 -0.07534862211 -3.477471791e-23)
(-0.1027959611 -0.08735206165 5.268012308e-25)
(-0.0796336571 -0.09021428613 0)
(-0.05417946971 -0.08229830905 0)
(-0.02982360855 -0.06387552097 -2.861706723e-24)
(-0.01064541503 -0.03793609217 2.925162665e-24)
(-0.0007334245929 -0.01049083092 1.024759327e-22)
(-0.0004474009016 0.02679582811 0)
(-0.01132471848 0.06462566909 1.996699314e-22)
(-0.02795541167 0.08805538499 8.938604992e-23)
(-0.04789617938 0.09986201495 0)
(-0.06906196386 0.102455601 1.563949339e-22)
(-0.09026172981 0.09759596962 0)
(-0.1105693118 0.08643988178 -1.421712051e-22)
(-0.1291711139 0.06972785263 6.479930074e-24)
(-0.1452225758 0.04803599084 0)
(-0.157772519 0.02203781385 0)
(-0.1657509103 -0.007250515559 -1.361879287e-24)
(-0.1680129984 -0.03824748645 -9.190170288e-25)
(-0.1634684372 -0.06865251852 1.475300309e-22)
(-0.1513069011 -0.09536356446 -4.688147791e-23)
(-0.1313312453 -0.1145968204 -2.512481989e-24)
(-0.1044159835 -0.1223448054 1.489094484e-24)
(-0.07299291556 -0.1153567236 -1.512577714e-24)
(-0.0412924893 -0.09268721687 0)
(-0.01523023235 -0.05732699021 3.176929052e-24)
(-0.001042255248 -0.01712668294 -1.005756431e-21)
(-0.0003748389627 0.03337401886 0)
(-0.01173196417 0.07977941188 -1.125355068e-22)
(-0.02916015694 0.1083623258 -6.175118623e-22)
(-0.05023597887 0.1229235943 -3.744770896e-22)
(-0.07284664774 0.1266212065 0)
(-0.09584088113 0.1216739937 4.104561592e-22)
(-0.1183515383 0.1094382735 1.255025341e-22)
(-0.139618028 0.09065240018 -5.553662987e-24)
(-0.1588113985 0.06575634569 5.526176241e-24)
(-0.1749276996 0.03522478499 0)
(-0.1867358424 -0.0001103343139 2.896753566e-23)
(-0.1928009531 -0.03874735987 4.662064311e-24)
(-0.1915740713 -0.07823517114 -1.067062088e-22)
(-0.1815956846 -0.1149428981 7.913551425e-23)
(-0.1618871315 -0.1439938771 -2.398126573e-22)
(-0.1325656668 -0.1595883047 0)
(-0.09567495895 -0.1560703644 0)
(-0.05595315619 -0.1301102521 0)
(-0.02145284829 -0.08369803203 0)
(-0.001497957736 -0.02662193933 5.535066897e-22)
(-0.0002887307289 0.04006386147 0)
(-0.01168459724 0.09520747508 -3.484300841e-22)
(-0.02921743974 0.1291052908 8.910593199e-22)
(-0.05055925415 0.1466026367 3.607006695e-22)
(-0.07362617254 0.1516602176 0)
(-0.09735431503 0.1470017917 -3.848640386e-22)
(-0.1209912253 0.1342051515 -3.162396246e-23)
(-0.1439031289 0.1139970812 3.320645099e-22)
(-0.165376383 0.08663507984 1.762552939e-22)
(-0.1844826244 0.05230373984 -4.043957834e-23)
(-0.1999892227 0.01150319722 1.653257485e-23)
(-0.2103198489 -0.03456195784 -8.222131678e-24)
(-0.2135808732 -0.08355684774 3.356460169e-22)
(-0.2076857603 -0.1316223267 0)
(-0.1906957105 -0.1729928106 2.399285027e-22)
(-0.1615191483 -0.1999667496 5.710006445e-24)
(-0.1210741373 -0.2037359981 -5.795153561e-24)
(-0.0737886966 -0.1769846207 1.528036239e-22)
(-0.0296904731 -0.1187176403 -5.375208199e-24)
(-0.002176798924 -0.04000630204 0)
(-0.0002139957863 0.04661735694 0)
(-0.01125194279 0.1103139998 0)
(-0.02815389949 0.1494220663 -5.010558542e-22)
(-0.04873363922 0.1698112369 -1.876397075e-23)
(-0.07097911985 0.1762985047 2.032425949e-23)
(-0.09396296418 0.1721687194 -2.008429165e-23)
(-0.1171047426 0.1592667001 -2.309005575e-23)
(-0.1399756223 0.1383353467 -3.018412266e-22)
(-0.1620901362 0.1094505264 6.687989658e-23)
(-0.1827547174 0.07246447498 4.494972861e-23)
(-0.2009440933 0.02743426181 -4.558739142e-23)
(-0.2151876495 -0.02493809483 0)
(-0.2235137845 -0.08278091142 -7.774656864e-23)
(-0.2234143151 -0.1424795175 0)
(-0.2120109852 -0.1979034742 -3.723980522e-22)
(-0.1866805969 -0.239781037 5.217613848e-22)
(-0.1463823957 -0.2557854258 0)
(-0.09389715512 -0.2328666291 -1.474188514e-22)
(-0.04019444832 -0.1637858015 1.917075351e-22)
(-0.00319818219 -0.05854810337 -3.391191087e-22)
(-0.0002046102953 0.05288115367 0)
(-0.0106861711 0.1245875602 9.16419666e-22)
(-0.02630890128 0.1684336786 -2.435422809e-23)
(-0.04504302317 0.1913081275 9.173696135e-22)
(-0.06498298977 0.1989678974 -2.506112406e-23)
(-0.0854077454 0.1953307627 2.830987343e-23)
(-0.1059773676 0.1825744461 -2.805145452e-23)
(-0.1265461659 0.1615208639 -1.655967776e-23)
(-0.1469615355 0.1321183465 -5.244723375e-22)
(-0.166915415 0.0939144357 -8.879960941e-24)
(-0.185805105 0.0464910869 9.631851038e-24)
(-0.2025538753 -0.01009615363 3.30483934e-22)
(-0.2154850201 -0.0748104848 -5.804061086e-22)
(-0.2220759409 -0.1448068272 0)
(-0.2188367475 -0.2144224561 8.857473264e-22)
(-0.2016345312 -0.2737268512 -4.915192881e-22)
(-0.1668511336 -0.3072994526 -1.564054833e-23)
(-0.1139985204 -0.2951207435 0)
(-0.05286608998 -0.2193864269 -1.870054202e-22)
(-0.004746409745 -0.08369717556 3.340602369e-22)
(-0.0003678487115 0.05893929527 1.547937928e-23)
(-0.01052035976 0.1377781926 -8.746380839e-22)
(-0.02446448841 0.1853928387 -1.154990601e-21)
(-0.04034186792 0.2098211195 -8.610559906e-22)
(-0.05640274717 0.2179294089 0)
(-0.07226231095 0.214357387 3.505466725e-23)
(-0.08792259733 0.2016825801 -7.277217815e-23)
(-0.1036022723 0.180879932 5.853396957e-23)
(-0.119558608 0.1518563491 3.01316682e-22)
(-0.1359649378 0.113943021 -1.125441703e-23)
(-0.1527872848 0.06630239792 0)
(-0.1696314276 0.008311947104 -3.594839167e-22)
(-0.1854468729 -0.05999067279 7.499769086e-22)
(-0.1981973194 -0.137080756 8.81557297e-22)
(-0.204477965 -0.2187122914 -5.281523431e-22)
(-0.1991834829 -0.2957393273 5.150406203e-22)
(-0.1761060476 -0.3511617293 1.071298843e-23)
(-0.130100575 -0.358174145 -1.088501835e-23)
(-0.06688179124 -0.2841325944 -8.38988142e-23)
(-0.007081235009 -0.1169123801 0)
(-0.000913562704 0.06533310238 -1.908185472e-23)
(-0.01170984678 0.150103887 -1.324928709e-21)
(-0.02396210975 0.199815063 1.092291135e-21)
(-0.0361257254 0.2241401092 6.724354824e-22)
(-0.04672040708 0.2313862081 6.004704977e-22)
(-0.05594775832 0.2270071459 6.632139243e-22)
(-0.06431468275 0.2140065515 -4.449464705e-23)
(-0.07249822131 0.1935507684 -3.454837122e-22)
(-0.08120813248 0.1655763695 2.148166665e-22)
(-0.0911206534 0.1293094251 0)
(-0.1028080292 0.08362195513 0)
(-0.1166130525 0.02732843869 2.651563408e-22)
(-0.1323993261 -0.04046935302 8.206733283e-23)
(-0.1491456536 -0.1198506216 -2.813490708e-22)
(-0.1643180204 -0.2087606082 -5.40297286e-23)
(-0.1729356403 -0.3005208632 1.304173815e-22)
(-0.1671299431 -0.3791416654 -3.391473477e-22)
(-0.1365781004 -0.4134473572 -1.669186928e-23)
(-0.0801929385 -0.3536568652 8.378413291e-23)
(-0.0105070127 -0.1593280077 -6.04355653e-22)
(-0.002264487657 0.07344244141 0)
(-0.01584367295 0.1625165427 2.14279912e-21)
(-0.02673990322 0.2115889322 0)
(-0.03436367877 0.2331618111 -1.349916827e-21)
(-0.03778043124 0.2375479366 6.195938723e-23)
(-0.03822209409 0.2310600415 -6.182029959e-22)
(-0.03693714976 0.2170476062 -4.748629242e-22)
(-0.03516586799 0.1968171393 8.286844491e-22)
(-0.03407699494 0.1703214454 -1.882158279e-22)
(-0.03479168291 0.1367664975 0)
(-0.03840604387 0.09488585094 0)
(-0.04593112589 0.04316131738 2.41687209e-23)
(-0.05817463667 -0.02000505716 -5.999523446e-22)
(-0.07539158552 -0.0960726928 -4.304150028e-22)
(-0.0966685606 -0.1854261282 4.634361439e-22)
(-0.1185247592 -0.2852298708 -6.478881887e-22)
(-0.1334034969 -0.3837059655 9.07894483e-23)
(-0.1266129115 -0.4502956862 3.016207561e-23)
(-0.08901841108 -0.4197155448 5.664003147e-22)
(-0.01527070118 -0.2110953953 6.032167567e-22)
(-0.00518432934 0.08595709815 0)
(-0.02529662507 0.1765412921 1.466547741e-22)
(-0.0349290453 0.2204521381 -4.911727739e-23)
(-0.03655241308 0.2353104408 7.6333946e-22)
(-0.0303900702 0.2341631171 -6.995979162e-22)
(-0.01941539586 0.2240063862 4.739890698e-23)
(-0.005893600112 0.2082404258 -1.018175086e-22)
(0.008271863795 0.1880638217 -3.384413276e-22)
(0.02149078541 0.1633838977 2.060067099e-22)
(0.03232354633 0.1333648553 0)
(0.0392918429 0.09671859109 0)
(0.04089531504 0.05184155149 -2.899451739e-22)
(0.03552984666 -0.003146121432 0)
(0.02174987151 -0.07047628723 -5.509211524e-22)
(-0.001469698285 -0.1524764491 -1.475724027e-23)
(-0.03327708936 -0.2505087848 2.557747736e-23)
(-0.06923012343 -0.3598510274 2.198467336e-22)
(-0.09236846825 -0.4574615457 4.804703531e-24)
(-0.08721755671 -0.4697222567 -5.793331958e-22)
(-0.02103510854 -0.2698380448 0)
(-0.0111181336 0.1085953637 0)
(-0.0425226476 0.1946736896 -8.839882034e-22)
(-0.04803850682 0.2257336346 -5.407514332e-22)
(-0.03933410035 0.2280973446 4.540813126e-22)
(-0.01897023393 0.2181083966 -1.713797504e-24)
(0.007427366741 0.2027096787 -4.556730455e-23)
(0.03641170822 0.1846781624 5.689567447e-22)
(0.06554338432 0.1646627715 -2.763391662e-23)
(0.09297889933 0.1423041768 -2.066969678e-22)
(0.117104007 0.1166559557 3.138686411e-23)
(0.136277211 0.08646948643 -3.422600328e-23)
(0.1487200494 0.05025390234 -3.687888718e-23)
(0.1523076848 0.00624413741 3.203706733e-22)
(0.144745351 -0.0478797079 6.116411903e-22)
(0.1233508932 -0.1152355174 -5.099114686e-22)
(0.08619930451 -0.2003647971 -1.61631044e-22)
(0.03187181611 -0.3067383537 1.530196128e-22)
(-0.02370637114 -0.4239411638 7.293728557e-23)
(-0.06495866179 -0.4871129137 1.91314078e-21)
(-0.02510447612 -0.3291166423 2.954819085e-21)
(-0.02004557346 0.146083998 -4.388047615e-23)
(-0.06417954684 0.2112884939 4.415200624e-23)
(-0.05075197064 0.2176924263 9.996822995e-22)
(-0.01943394368 0.201404801 -8.164018799e-24)
(0.02400549927 0.1808324242 0)
(0.07135950411 0.1606206029 4.359860478e-23)
(0.1188564102 0.1415915539 -2.27145687e-22)
(0.1642425119 0.1232817619 -9.017779459e-23)
(0.2059832526 0.1048011215 3.676398921e-23)
(0.2427275598 0.0850856732 -1.699741612e-23)
(0.2729995121 0.06299631239 3.426649688e-23)
(0.2950563642 0.03731152081 -6.587662019e-23)
(0.3065254042 0.006589544159 -9.297214731e-23)
(0.3048290769 -0.03082526053 1.516553677e-22)
(0.2862758744 -0.07781941338 0)
(0.2469630274 -0.1399000074 1.505987959e-22)
(0.1810162818 -0.2266164032 2.559579606e-22)
(0.09598775938 -0.3443726985 0)
(-0.006726608296 -0.4552031522 -3.675329107e-21)
(-0.01922883099 -0.3777372167 -2.892450688e-21)
(-0.02591603184 0.2276947214 -9.512975315e-22)
(-0.03997772629 0.2238298125 -1.388561264e-22)
(0.03655519028 0.1810513234 -2.334357686e-22)
(0.1090191807 0.145083371 -1.192949764e-22)
(0.1816551549 0.1172120575 -4.294463972e-23)
(0.2489102149 0.09624466898 9.776387437e-23)
(0.3099044504 0.07999575442 -1.407271182e-22)
(0.3644697947 0.0665484807 1.295752934e-22)
(0.412462705 0.05448454245 -8.610058716e-23)
(0.4534624378 0.04271423909 1.131824551e-25)
(0.4866353215 0.03033881767 1.526422044e-23)
(0.5106104097 0.01655195911 7.991112159e-23)
(0.5235486165 0.0005608933845 -1.810138991e-22)
(0.5230951743 -0.01861001966 -1.616651663e-22)
(0.5051701673 -0.0428456499 -4.262156104e-23)
(0.46582777 -0.07632030203 0)
(0.3952379681 -0.1286051976 -1.845544928e-22)
(0.2915832344 -0.2208457317 8.147742873e-22)
(0.1197310558 -0.3525007048 1.631447642e-21)
(0.02670181608 -0.3775476419 2.172574718e-21)
(0.2142930705 0.1347482815 9.86363629e-22)
(0.2776424082 0.09870960117 0)
(0.4316718179 0.05810628823 -2.593627153e-22)
(0.5304801565 0.03846192305 -1.741238932e-22)
(0.6016870232 0.02623130891 0)
(0.6570920886 0.01831558304 -6.005249976e-23)
(0.7014763305 0.01313288752 6.371824472e-23)
(0.7375463177 0.00954041664 -1.797910709e-23)
(0.7668721807 0.006804693967 2.882430776e-23)
(0.790146161 0.004466907634 2.312331774e-23)
(0.8073973965 0.002225017453 0)
(0.8182149868 -0.0001454306568 -2.87069258e-23)
(0.8216164219 -0.002718955617 0)
(0.8162199804 -0.005708987899 2.736902061e-23)
(0.7991250584 -0.009609218169 1.422190619e-23)
(0.767997824 -0.01500196957 -5.798303372e-23)
(0.71065762 -0.02502616074 -2.535093829e-22)
(0.6235197045 -0.04204398005 -6.917297426e-22)
(0.4230089629 -0.09183084966 0)
(0.2705671197 -0.1524027137 -2.119404044e-21)
)


// ************************************************************************* //
