/*--------------------------------*- C++ -*----------------------------------*\
  =========                 |
  \\      /  F ield         | OpenFOAM: The Open Source CFD Toolbox
   \\    /   O peration     | Website:  https://openfoam.org
    \\  /    A nd           | Version:  13
     \\/     M anipulation  |
\*---------------------------------------------------------------------------*/
FoamFile
{
    format      ascii;
    class       volVectorField;
    location    "8";
    object      U;
}
// * * * * * * * * * * * * * * * * * * * * * * * * * * * * * * * * * * * * * //

dimensions      [0 1 -1 0 0 0 0];

internalField   nonuniform List<vector> 
100
(
(-0.000484357 0.000451253 0)
(-0.00552751 0.00159045 0)
(-0.0137485 0.00218351 0)
(-0.0227011 0.00223697 0)
(-0.0297881 0.00171949 0)
(-0.0325798 0.000470841 0)
(-0.0291119 -0.00129347 0)
(-0.0195463 -0.00271133 0)
(-0.00789925 -0.00244994 0)
(-0.000598242 -0.000480817 0)
(-0.0021096 0.00594683 0)
(-0.016355 0.0140267 0)
(-0.0361498 0.017217 0)
(-0.0562551 0.0158641 0)
(-0.071363 0.0101352 0)
(-0.0768111 0.000188328 0)
(-0.0691405 -0.0118629 0)
(-0.0485927 -0.0207478 0)
(-0.0221563 -0.0194769 0)
(-0.00248666 -0.00711582 0)
(-0.00356654 0.0172507 0)
(-0.0257011 0.0358378 0)
(-0.0543444 0.0415033 0)
(-0.0825424 0.0368797 0)
(-0.10379 0.0227225 0)
(-0.112472 -0.000348606 0)
(-0.103893 -0.0280409 0)
(-0.0768867 -0.0497573 0)
(-0.0383648 -0.0498653 0)
(-0.00477791 -0.0215187 0)
(-0.00471651 0.0334634 0)
(-0.0331278 0.0653266 0)
(-0.0685693 0.0733551 0)
(-0.103307 0.0644998 0)
(-0.13068 0.0404475 0)
(-0.144657 0.00178093 0)
(-0.138994 -0.0460986 0)
(-0.109641 -0.0876211 0)
(-0.0607173 -0.0952165 0)
(-0.00852401 -0.0461507 0)
(-0.00555211 0.0534168 0)
(-0.0383148 0.100135 0)
(-0.0775596 0.110354 0)
(-0.115971 0.0972068 0)
(-0.147833 0.0635547 0)
(-0.167786 0.00897592 0)
(-0.168562 -0.0620859 0)
(-0.142737 -0.131268 0)
(-0.089276 -0.157465 0)
(-0.0146251 -0.0862151 0)
(-0.00609393 0.075951 0)
(-0.0407965 0.137075 0)
(-0.0785233 0.148432 0)
(-0.114129 0.131179 0)
(-0.144482 0.0897302 0)
(-0.16689 0.0217269 0)
(-0.175251 -0.0717852 0)
(-0.160048 -0.174288 0)
(-0.114089 -0.234367 0)
(-0.0226459 -0.149642 0)
(-0.00665876 0.100703 0)
(-0.0412933 0.1716 0)
(-0.0690595 0.180201 0)
(-0.0902073 0.158435 0)
(-0.107022 0.112571 0)
(-0.122456 0.0381156 0)
(-0.134978 -0.0694405 0)
(-0.135728 -0.202389 0)
(-0.113113 -0.31014 0)
(-0.0286571 -0.240745 0)
(-0.00959725 0.13345 0)
(-0.0446459 0.198475 0)
(-0.048739 0.19406 0)
(-0.0361583 0.16546 0)
(-0.0215692 0.120677 0)
(-0.0150147 0.0529352 0)
(-0.022673 -0.0484346 0)
(-0.0400773 -0.191452 0)
(-0.0574434 -0.343871 0)
(-0.0180469 -0.330796 0)
(-0.0336232 0.189898 0)
(-0.0436846 0.210958 0)
(0.0236917 0.167402 0)
(0.0961954 0.132788 0)
(0.155938 0.098018 0)
(0.194084 0.0532676 0)
(0.198403 -0.0130571 0)
(0.167565 -0.122208 0)
(0.0938867 -0.273422 0)
(0.0548638 -0.320269 0)
(0.224554 0.105697 0)
(0.284489 0.0982795 0)
(0.40453 0.0646215 0)
(0.50543 0.0444057 0)
(0.575485 0.0312607 0)
(0.618154 0.0199859 0)
(0.622345 0.00565797 0)
(0.584849 -0.0144799 0)
(0.458149 -0.057343 0)
(0.321378 -0.109753 0)
)
;

boundaryField
{
    movingWall
    {
        type            fixedValue;
        value           uniform (1 0 0);
    }
    fixedWalls
    {
        type            fixedValue;
        value           uniform (0 0 0);
    }
    frontAndBack
    {
        type            empty;
    }
}


// ************************************************************************* //
