/*--------------------------------*- C++ -*----------------------------------*\
  =========                 |
  \\      /  F ield         | OpenFOAM: The Open Source CFD Toolbox
   \\    /   O peration     | Website:  https://openfoam.org
    \\  /    A nd           | Version:  13
     \\/     M anipulation  |
\*---------------------------------------------------------------------------*/
FoamFile
{
    format      ascii;
    class       vectorField;
    location    "11.3";
    object      U_all;
}
// * * * * * * * * * * * * * * * * * * * * * * * * * * * * * * * * * * * * * //


400
(
(8.973795234e-06 -3.425299388e-05 0)
(-0.0006613483791 0.0004096744636 -1.514704251e-23)
(-0.002157270368 0.0009078577741 0)
(-0.003989678889 0.001292959906 0)
(-0.005882363856 0.001511088962 6.445780643e-25)
(-0.007645065807 0.00154519586 4.109989258e-24)
(-0.009144811082 0.001401555363 -5.92874182e-24)
(-0.01028252979 0.001103094232 9.092788989e-24)
(-0.01097947546 0.000686637181 -2.233780375e-25)
(-0.01117614598 0.0002013930087 -4.214952852e-24)
(-0.01083724121 -0.0002948043312 6.061278781e-24)
(-0.009962953074 -0.000736928308 -6.153533292e-23)
(-0.008601745322 -0.001062673221 -6.813160783e-23)
(-0.006858458053 -0.001221163068 -8.07730065e-23)
(-0.004898257529 -0.00118483729 4.781400954e-24)
(-0.002940298747 -0.00096031141 -4.380172735e-24)
(-0.00123408161 -0.00059621959 -2.179782866e-22)
(-5.001854581e-05 -0.0001797011005 0)
(0.0004960968839 0.0001602308278 2.405284796e-25)
(0.0002171271809 0.0002981954515 -1.435748848e-23)
(-0.0002592508049 0.0008218638964 1.349149146e-25)
(-0.002659061935 0.003332759347 1.524362703e-23)
(-0.006788383304 0.005511269019 1.50495118e-25)
(-0.01174333713 0.006888492076 -8.016847548e-25)
(-0.01683506708 0.007425223701 1.083352466e-24)
(-0.02159429768 0.007173433326 1.180441193e-23)
(-0.02566657377 0.006223084418 2.69285805e-24)
(-0.0287818573 0.004688112807 -8.807482045e-24)
(-0.03073027046 0.002710275125 1.101398119e-23)
(-0.03136075445 0.0004660328669 4.76362336e-24)
(-0.03058820775 -0.00183253733 -6.600281662e-24)
(-0.02841848352 -0.003942511811 2.811386745e-24)
(-0.02497762163 -0.005611881443 4.017982463e-23)
(-0.02052667297 -0.006610365644 -2.062756514e-24)
(-0.01547023634 -0.006772004786 3.988190398e-24)
(-0.01033859462 -0.006042933415 -1.065926785e-22)
(-0.005734699634 -0.004526152867 1.060126134e-22)
(-0.002260822524 -0.00251970836 -5.735486092e-25)
(-0.0002066612795 -0.0005349328521 5.880151582e-25)
(7.975387959e-05 0.0005842182099 0)
(-0.0004100254654 0.002889461889 -2.825122952e-25)
(-0.004558617773 0.00865010563 1.621382622e-23)
(-0.01115388867 0.01300118702 -8.28346999e-24)
(-0.0189595123 0.01550617568 -1.910999529e-25)
(-0.02695804222 0.01623659465 1.877363831e-25)
(-0.03447035695 0.01537828621 4.218979175e-26)
(-0.04096331116 0.01314960965 -2.479149373e-24)
(-0.04601962437 0.009786078495 -5.436254409e-25)
(-0.04930946262 0.005557648521 -1.153346997e-23)
(-0.05058873239 0.0007912676744 0)
(-0.04971159761 -0.004112035738 0)
(-0.04666420347 -0.008691777329 2.805872848e-23)
(-0.04160542332 -0.01244638998 2.956414799e-23)
(-0.03489366939 -0.01489189553 -1.764082424e-24)
(-0.02710294293 -0.01564151471 5.282796575e-23)
(-0.01900297956 -0.01450536634 1.03108183e-22)
(-0.01148723056 -0.01159668679 5.04359765e-23)
(-0.005449412146 -0.007427209386 7.751234221e-25)
(-0.001458731274 -0.002966539972 -8.413875548e-26)
(-9.088418174e-05 0.0001881796811 0)
(-0.0004907315035 0.005937464997 -4.063175594e-23)
(-0.006272370179 0.01606582118 -1.610964803e-23)
(-0.01522452679 0.02311745115 8.205845446e-24)
(-0.02576327808 0.02693330129 0)
(-0.03657044159 0.0278120984 0)
(-0.04679534866 0.02613452588 0)
(-0.05576089631 0.02227852436 -9.434316713e-26)
(-0.06292414057 0.01661600494 -1.062819895e-24)
(-0.06783912772 0.009552921216 0)
(-0.07014936557 0.001576190191 1.988688947e-24)
(-0.069613807 -0.00671067097 3.035537747e-25)
(-0.06614443343 -0.01459015039 -3.044037806e-25)
(-0.05985822203 -0.02125267895 0)
(-0.05113534216 -0.02587580808 4.561010124e-23)
(-0.04065462655 -0.02774744741 -5.10678482e-23)
(-0.02939259842 -0.02643624164 -3.307469584e-23)
(-0.01855304665 -0.02198916299 -5.047083064e-23)
(-0.009408155544 -0.01511633396 7.648275962e-25)
(-0.002959384287 -0.007297278182 8.3714551e-23)
(-0.0002296410152 -0.0009030049107 0)
(-0.0005191912294 0.009903933945 4.083029457e-23)
(-0.007821776834 0.02545531851 4.833505702e-25)
(-0.01901309476 0.0357373263 -4.723122937e-25)
(-0.03218898243 0.04107868727 0)
(-0.04576687711 0.04212956131 7.440596513e-25)
(-0.05875452691 0.03952615121 -7.337435921e-25)
(-0.07036034863 0.03382522129 3.451163049e-23)
(-0.07993333698 0.02553016656 1.600683003e-23)
(-0.08690916673 0.01516635151 5.354568119e-24)
(-0.09079653945 0.003363446124 -1.991005976e-24)
(-0.09120374526 -0.009081714418 0)
(-0.08788780112 -0.0211753835 5.00402285e-25)
(-0.08083068287 -0.0317474373 1.257310563e-23)
(-0.0703331248 -0.03953817529 -4.806213494e-23)
(-0.05709752383 -0.04336569524 2.248952504e-24)
(-0.0422776734 -0.04238535298 5.342898556e-23)
(-0.02744207362 -0.03642042692 -5.689609016e-25)
(-0.01439553457 -0.02629276355 0)
(-0.004811317344 -0.01401327777 5.299308611e-23)
(-0.0003588636134 -0.002866149573 -2.393182554e-22)
(-0.0005161241713 0.01471065341 9.811295317e-23)
(-0.009198757491 0.0366740429 -4.926542277e-25)
(-0.0224546142 0.05072992342 0)
(-0.03812256286 0.0578669774 0)
(-0.05440378941 0.05920693324 -8.530924813e-23)
(-0.0701998304 0.05569915035 -8.235866444e-23)
(-0.08463633591 0.04808895924 -3.822689535e-23)
(-0.096974641 0.03698838727 -1.365479705e-23)
(-0.1065334957 0.02300000152 -4.580784123e-24)
(-0.112662471 0.006847628822 -7.492573698e-24)
(-0.1147649836 -0.010514488 5.827691718e-24)
(-0.1123565575 -0.02783158519 7.326984667e-24)
(-0.105168501 -0.04353545897 -1.81682195e-23)
(-0.09329073379 -0.05582210995 -1.860035611e-24)
(-0.0773273269 -0.06284953546 0)
(-0.0585393116 -0.06309689712 -2.188455829e-23)
(-0.03889449549 -0.05588182082 1.836911523e-25)
(-0.02090737304 -0.04193822664 0)
(-0.00723826568 -0.02380045588 -1.363514481e-22)
(-0.0005133892792 -0.005911894554 5.692468931e-22)
(-0.0004910260314 0.02025417428 -9.744115513e-23)
(-0.01035061601 0.0495096362 2.796646445e-22)
(-0.02539767299 0.06786188508 1.50538228e-22)
(-0.04330086663 0.07710990469 3.548648254e-24)
(-0.06210196211 0.07895359335 -7.177310452e-23)
(-0.08064083914 0.07470617431 8.760777558e-23)
(-0.09799983114 0.0653029022 -3.472738284e-24)
(-0.1133835051 0.05142703319 -1.643733601e-24)
(-0.1260100384 0.0336936012 2.391061593e-24)
(-0.1350640867 0.01284108092 6.747394639e-24)
(-0.1397085824 -0.01009759989 -5.765679722e-24)
(-0.1391435455 -0.03366228299 -8.1351638e-24)
(-0.1327321275 -0.05588940196 -3.182889329e-23)
(-0.1201946566 -0.07434493939 -2.545024246e-23)
(-0.1018541262 -0.08631437213 3.351258489e-25)
(-0.0789190483 -0.08924550926 0)
(-0.05369979838 -0.08149860662 0)
(-0.02956030387 -0.06332154147 -2.634413968e-24)
(-0.01054992733 -0.03765494936 2.692838045e-24)
(-0.0007243001871 -0.01043695436 1.007850226e-22)
(-0.0004443781887 0.02638349789 0)
(-0.01119054137 0.06364644511 1.969040254e-22)
(-0.02762396851 0.08675690723 8.813819681e-23)
(-0.04733575764 0.09844828709 0)
(-0.06827265543 0.1010880107 1.536248713e-22)
(-0.08926300697 0.09639777177 0)
(-0.1093937633 0.08550115486 -1.388010731e-22)
(-0.1278590979 0.06910933918 6.301113382e-24)
(-0.1438183812 0.04777173465 0)
(-0.1563217956 0.02213698169 0)
(-0.1643001903 -0.00680216679 -1.297322326e-24)
(-0.1666074239 -0.03748512592 -8.536232258e-25)
(-0.1621518466 -0.06763410354 1.38912116e-22)
(-0.1501237338 -0.09416799334 -4.597105308e-23)
(-0.1303243697 -0.11332381 -2.262899296e-24)
(-0.1036230443 -0.1211120939 1.254889044e-24)
(-0.07243820457 -0.1142906441 -1.274683891e-24)
(-0.04097453201 -0.09190125457 0)
(-0.01510887339 -0.05688725657 3.037821208e-24)
(-0.001030990825 -0.01701576878 -9.685357035e-22)
(-0.0003765753091 0.03289377116 0)
(-0.01163168787 0.07864683628 -1.113976866e-22)
(-0.02890077589 0.106865586 -6.098181409e-22)
(-0.04978582844 0.1212980413 -3.69270375e-22)
(-0.07220240356 0.1250512392 0)
(-0.09501758557 0.1202983487 4.028860412e-22)
(-0.117376668 0.1083562763 1.225242375e-22)
(-0.1385258643 0.08992926535 -5.40806652e-24)
(-0.1576387766 0.06542732632 5.381299988e-24)
(-0.1737110517 0.03529849744 0)
(-0.1855083407 0.0003510798538 2.815841719e-23)
(-0.1915945828 -0.03793328934 4.48527131e-24)
(-0.1904206806 -0.07712426037 -1.016354409e-22)
(-0.1805279243 -0.113610134 7.442769325e-23)
(-0.160942404 -0.1425360967 -2.284842978e-22)
(-0.1317856172 -0.1581269291 0)
(-0.09509915536 -0.1547496112 0)
(-0.05560375057 -0.1290811097 0)
(-0.02131076129 -0.08307807346 0)
(-0.001484606557 -0.02644074708 5.342050361e-22)
(-0.0002957147134 0.03953942852 0)
(-0.01163312022 0.09396956881 -3.442144661e-22)
(-0.02906516104 0.1274673218 8.800756161e-22)
(-0.05027667586 0.1448233734 3.556746428e-22)
(-0.07320661465 0.1499432046 0)
(-0.09680782073 0.1454990461 -3.777956536e-22)
(-0.1203394298 0.1330232662 -3.100118715e-23)
(-0.1431733582 0.1132032538 3.25535889e-22)
(-0.1645965691 0.08626255264 1.726074109e-22)
(-0.1836773442 0.0523568584 -3.958156384e-23)
(-0.1991769502 0.01196266319 1.633615674e-23)
(-0.2095133911 -0.03373491383 -7.993949427e-24)
(-0.2127895473 -0.08241527292 3.274627632e-22)
(-0.206920422 -0.1302326223 0)
(-0.1899761147 -0.1714386811 2.285946565e-22)
(-0.1608790157 -0.1983578689 5.371399189e-24)
(-0.1205605407 -0.2022175651 -5.451503175e-24)
(-0.07344856064 -0.1757353145 1.421752332e-22)
(-0.029538661 -0.1179130964 -5.062177017e-24)
(-0.002161640228 -0.03974516709 0)
(-0.0002261101781 0.0460798257 0)
(-0.01125972576 0.1090338698 0)
(-0.02813488921 0.1477182384 -4.949652718e-22)
(-0.04866278988 0.1679554322 -1.853126696e-23)
(-0.07084660717 0.1745084613 2.001735e-23)
(-0.09377313898 0.1706073124 -1.978100069e-23)
(-0.1168724098 0.1580459395 -2.267684813e-23)
(-0.139720199 0.137522004 -2.958600209e-22)
(-0.1618298694 0.1090723743 6.62924134e-23)
(-0.1825016079 0.07251684589 4.398594207e-23)
(-0.2007001972 0.0278879738 -4.457972869e-23)
(-0.2149451147 -0.02412822518 0)
(-0.2232564972 -0.08167037264 -7.432026349e-23)
(-0.2231246011 -0.1411247715 0)
(-0.2116807861 -0.1963677107 -3.641037671e-22)
(-0.1863220929 -0.238146727 5.072779401e-22)
(-0.1460359134 -0.2541758713 0)
(-0.09362548892 -0.2314654545 -1.371054095e-22)
(-0.04005207984 -0.1628195436 1.810472169e-22)
(-0.003182011235 -0.05820457196 -3.284956282e-22)
(-0.0002211411985 0.05236578076 0)
(-0.01075750995 0.1233376819 9.06888028e-22)
(-0.02643621134 0.1667513425 -2.408635719e-23)
(-0.04520772948 0.189465384 9.072707554e-22)
(-0.06517197252 0.1971903367 -2.475346079e-23)
(-0.08561800955 0.1937890981 2.789839794e-23)
(-0.1062144606 0.181384366 -2.764373071e-23)
(-0.1268191342 0.1607469634 -1.629695239e-23)
(-0.1472772883 0.1317806317 -5.162263302e-22)
(-0.1672732046 0.09399581597 -8.737782452e-24)
(-0.1861920173 0.04694758499 9.479881489e-24)
(-0.2029468162 -0.009323421777 3.26058223e-22)
(-0.21584609 -0.07377884302 -5.71465001e-22)
(-0.2223597194 -0.1435686848 0)
(-0.219005909 -0.2130201847 8.698249449e-22)
(-0.2016709037 -0.2722067645 -4.7790767e-22)
(-0.1667724006 -0.3057416198 -1.52081756e-23)
(-0.1138642 -0.2936821499 0)
(-0.05276086486 -0.2183168986 -1.765248775e-22)
(-0.004730935172 -0.08328064991 3.236212893e-22)
(-0.0003876736502 0.05848162134 1.532146711e-23)
(-0.01065272907 0.1366331491 -8.655432503e-22)
(-0.02473581301 0.1838229449 -1.144370484e-21)
(-0.04074154006 0.208084542 -8.515822306e-22)
(-0.05691375491 0.2162514435 0)
(-0.07287156837 0.2129122804 3.461669063e-23)
(-0.08862228642 0.2005877325 -7.184158829e-23)
(-0.1043866777 0.1801969657 5.776580649e-23)
(-0.1204202815 0.1515978248 2.969467142e-22)
(-0.1368906538 0.1140797077 -1.110716188e-23)
(-0.1537539617 0.06677557319 0)
(-0.1706013942 0.009048203408 -3.546010636e-22)
(-0.1863724487 -0.05905873072 7.414340081e-22)
(-0.199023942 -0.1360074374 8.729054566e-22)
(-0.2051465424 -0.2175258526 -5.200818089e-22)
(-0.1996471234 -0.2944521743 5.085233477e-22)
(-0.1763506134 -0.349800297 1.034856716e-23)
(-0.1301599141 -0.3568401979 -1.051475356e-23)
(-0.06684531814 -0.2830537534 -9.290147286e-23)
(-0.007069525811 -0.1164481279 0)
(-0.0009353411512 0.06496500356 -1.891151338e-23)
(-0.01189395888 0.1491326693 -1.314455427e-21)
(-0.0243592916 0.198443111 1.082298022e-21)
(-0.03673434176 0.2225968647 6.669889554e-22)
(-0.04751912836 0.2298865384 5.953276632e-22)
(-0.05691053264 0.2257225562 6.570421033e-22)
(-0.06541572459 0.2130535136 -4.400723681e-23)
(-0.07371148516 0.1929877132 -3.420290235e-22)
(-0.08250736267 0.1654118004 2.126873779e-22)
(-0.09247848352 0.129506598 0)
(-0.1041926957 0.08411314313 0)
(-0.1179863111 0.02803072105 2.630988836e-22)
(-0.1337166963 -0.03963777702 8.274650726e-23)
(-0.1503546482 -0.1189505835 -2.769686155e-22)
(-0.1653586261 -0.2078176363 -5.358631196e-23)
(-0.1737472711 -0.2995277718 1.316529397e-22)
(-0.1676722921 -0.3780780741 -3.344587058e-22)
(-0.1368455218 -0.4123497718 -2.054791273e-23)
(-0.08024895083 -0.3526826758 9.277450502e-23)
(-0.01050345014 -0.1588573278 -6.100321251e-22)
(-0.002286393855 0.07318826736 0)
(-0.01606256477 0.1617744192 2.12699608e-21)
(-0.02722769012 0.210485521 0)
(-0.0351285365 0.2318840371 -1.340213445e-21)
(-0.03879774837 0.2362888502 6.261310757e-23)
(-0.03945190864 0.2299800999 -6.124244847e-22)
(-0.03833379339 0.2162588746 -4.709111577e-22)
(-0.03667960959 0.1963722625 8.209990458e-22)
(-0.0356598211 0.1702327964 -1.863289239e-22)
(-0.03640177949 0.13699692 0)
(-0.04000410578 0.09536775121 0)
(-0.04748122917 0.04381050105 2.451396167e-23)
(-0.05964527238 -0.01927234766 -5.958428427e-22)
(-0.07674715258 -0.09532893135 -4.275247658e-22)
(-0.09786613637 -0.1847033621 4.616257866e-22)
(-0.1195107117 -0.2845207488 -6.427216931e-22)
(-0.1341333503 -0.3829652229 8.853183016e-23)
(-0.1270430893 -0.4495173919 3.419407563e-23)
(-0.08916602996 -0.4189488903 5.680518922e-22)
(-0.01527910407 -0.2106709752 6.088825437e-22)
(-0.005203215366 0.08582889132 0)
(-0.02552166381 0.176060282 1.471887369e-22)
(-0.03544838597 0.2196629539 -4.884177697e-23)
(-0.03738512299 0.2343467168 7.584663542e-22)
(-0.03151260201 0.233184792 -6.947673364e-22)
(-0.02077797804 0.2231525664 4.706346408e-23)
(-0.007438125477 0.207612998 -1.016208566e-22)
(0.006618693167 0.1877178981 -3.354951088e-22)
(0.01979916822 0.1633314683 2.04558732e-22)
(0.03064445604 0.1335783442 0)
(0.03767251394 0.09714104956 0)
(0.03937154654 0.05239762204 -2.882287473e-22)
(0.03411645325 -0.002537701555 0)
(0.0204646632 -0.06987703346 -5.493984223e-22)
(-0.002605641792 -0.1519322633 -1.38300776e-23)
(-0.03423249207 -0.2500244139 2.548496403e-23)
(-0.06999663364 -0.3593836995 2.175586636e-22)
(-0.09287039912 -0.4570140618 4.876921179e-24)
(-0.08741953462 -0.4692186841 -5.811643113e-22)
(-0.02105655898 -0.26950976 0)
(-0.01112819856 0.1085835417 0)
(-0.04270707968 0.1944464321 -8.79609215e-22)
(-0.04849467813 0.2252625249 -5.390169354e-22)
(-0.0400945394 0.2274582748 4.526227384e-22)
(-0.02002352938 0.2174228039 -1.735528494e-24)
(0.006126156467 0.2020846915 -4.535021472e-23)
(0.03492897243 0.1842004822 5.653428298e-22)
(0.06395607463 0.1643902965 -2.745096703e-23)
(0.0913633953 0.1422498396 -2.052144213e-22)
(0.1155241956 0.1168065464 3.1201458e-23)
(0.1347849781 0.08678588842 -3.40514626e-23)
(0.1473498484 0.05067983868 -3.673788082e-23)
(0.1510844642 0.006718341229 3.193847499e-22)
(0.1436778003 -0.04742365541 6.100140281e-22)
(0.1224316418 -0.1148441893 -5.089228512e-22)
(0.0854450297 -0.2000566289 -1.619222909e-22)
(0.03120424284 -0.3065009304 1.522206615e-22)
(-0.02418463163 -0.423702448 7.292397986e-23)
(-0.06514751561 -0.4868431645 1.911988276e-21)
(-0.02513079139 -0.3289060674 2.953526705e-21)
(-0.02003888111 0.1461457397 -4.377292745e-23)
(-0.06426455213 0.2112498383 4.404384815e-23)
(-0.05102467859 0.2174864965 9.972615373e-22)
(-0.01994257428 0.2010579974 -7.575941557e-24)
(0.02324258018 0.1804185315 0)
(0.07035968972 0.1602177942 4.340759329e-23)
(0.1176751797 0.1412648971 -2.259335836e-22)
(0.1629458382 0.1230771873 -8.965841851e-23)
(0.2046437501 0.1047372275 3.654036299e-23)
(0.2414134001 0.08515964141 -1.689619206e-23)
(0.2717690754 0.06318515378 3.409175024e-23)
(0.2939583835 0.03757781913 -6.561618586e-23)
(0.3055671544 0.006888154616 -9.262266206e-23)
(0.3040197617 -0.03053425697 1.514364651e-22)
(0.2856178758 -0.07757636484 0)
(0.246439772 -0.1397317642 1.509788347e-22)
(0.1805912439 -0.2265430779 2.557135687e-22)
(0.09566952985 -0.3442759438 0)
(-0.006887912124 -0.4551024865 -3.673114005e-21)
(-0.0192553635 -0.3776445432 -2.891180849e-21)
(-0.02589696813 0.2277596869 -9.507002591e-22)
(-0.03994734457 0.2238747747 -1.386626174e-22)
(0.03652153278 0.1810122453 -2.328536391e-22)
(0.1088493275 0.1449607629 -1.188989514e-22)
(0.181305009 0.1170330534 -4.289191195e-23)
(0.2483670151 0.09605463186 9.745644202e-23)
(0.3091920207 0.07983154144 -1.400874221e-22)
(0.3636335854 0.06643801951 1.288544915e-22)
(0.4115619598 0.05444202015 -8.558127769e-23)
(0.4525590311 0.04274118878 1.130859505e-25)
(0.4857853488 0.03042463407 1.519572889e-23)
(0.5098573194 0.01667805649 7.959574401e-23)
(0.5229262845 0.000694993288 -1.805193857e-22)
(0.5226216891 -0.01847810346 -1.614444087e-22)
(0.5048215242 -0.04273836013 -4.261524079e-23)
(0.4655823636 -0.07625244446 0)
(0.3950597594 -0.1285841989 -1.839339532e-22)
(0.2914485602 -0.2208386833 8.141030622e-22)
(0.1196501214 -0.3524949196 1.630418617e-21)
(0.02668136305 -0.3775354913 2.172040375e-21)
(0.2143129135 0.1347677878 9.857041279e-22)
(0.2777043408 0.09873466731 0)
(0.4317409893 0.05811803892 -2.590667695e-22)
(0.5305092244 0.03845814803 -1.739727745e-22)
(0.601635238 0.02621543923 0)
(0.6569396575 0.01829552754 -5.988314897e-23)
(0.7012283409 0.01311537702 6.342010254e-23)
(0.7372258288 0.009530822574 -1.786529871e-23)
(0.7665135529 0.00680567335 2.864389147e-23)
(0.7897871764 0.004478633594 2.298368962e-23)
(0.8070728154 0.00224539541 0)
(0.8179505074 -0.0001195416111 -2.858590238e-23)
(0.8214273381 -0.00269096772 0)
(0.8161097119 -0.005687966586 2.73174315e-23)
(0.7990773579 -0.009596788355 1.426747002e-23)
(0.767992172 -0.01499843074 -5.790312587e-23)
(0.7106682759 -0.0250314764 -2.531357496e-22)
(0.6235264421 -0.04205005355 -6.912046897e-22)
(0.4230081004 -0.09183733427 0)
(0.2705651633 -0.152405656 -2.118883128e-21)
)


// ************************************************************************* //
