/*--------------------------------*- C++ -*----------------------------------*\
  =========                 |
  \\      /  F ield         | OpenFOAM: The Open Source CFD Toolbox
   \\    /   O peration     | Website:  https://openfoam.org
    \\  /    A nd           | Version:  13
     \\/     M anipulation  |
\*---------------------------------------------------------------------------*/
FoamFile
{
    format      ascii;
    class       scalarField;
    location    "21";
    object      p_all;
}
// * * * * * * * * * * * * * * * * * * * * * * * * * * * * * * * * * * * * * //


400
(
1.382530648e-06
-0.0005456927253
-0.0008875540467
-0.001014868136
-0.0009358651555
-0.0006828907906
-0.0002935120069
0.0001962828453
0.0007499801917
0.00132711464
0.00188205821
0.002361958174
0.002711420465
0.002877360124
0.002818258826
0.002516124262
0.001991398352
0.001301192791
0.0006424741467
4.67128399e-05
0.0005895123952
8.448912015e-06
-0.0003550968287
-0.0004972535311
-0.0004664422983
-0.0002892230194
5.025325649e-06
0.0003870054861
0.0008253004957
0.001282654675
0.001719246227
0.002083939573
0.002326366703
0.002399157551
0.002268436732
0.001925427588
0.001396863355
0.0007477713865
0.0001503252715
-0.0005122413157
0.0009535664933
0.0003094195004
-9.162438545e-05
-0.0002377753895
-0.0002314785707
-0.000102800756
0.0001242244891
0.00042830531
0.0007856990085
0.001164414612
0.001532572398
0.001836148845
0.002025209215
0.002051035077
0.001878483265
0.001497723573
0.0009327193453
0.0002400085082
-0.0004582649159
-0.001295056911
0.0009771657589
0.0002592784402
-0.0001907419167
-0.0003428394891
-0.0003518882019
-0.0002546818187
-7.186114175e-05
0.0001839785037
0.0004992851296
0.0008537884318
0.001206363593
0.001514033258
0.001716037499
0.001751864513
0.001572649839
0.00115499738
0.0005107126658
-0.0003134837954
-0.00122857343
-0.002379079561
0.0004815688748
-0.0002836346601
-0.0007623028577
-0.0009137902453
-0.0009345562271
-0.0008658348079
-0.0007226188482
-0.0005053789008
-0.0002138426112
0.0001427256679
0.0005338941678
0.0009113885509
0.001204007309
0.001330889684
0.001215639181
0.0008050623447
8.510169758e-05
-0.0009121933249
-0.002121884126
-0.003650024641
-0.0006849723024
-0.001465489318
-0.001954299376
-0.002105116971
-0.002147582032
-0.002123848451
-0.002039051095
-0.001876021451
-0.001613537033
-0.001241191801
-0.0007745322917
-0.0002580984195
0.0002255069991
0.0005664879348
0.0006429694534
0.0003468450768
-0.0003874718124
-0.001558209736
-0.003128654626
-0.005135458874
-0.002659856857
-0.003421344316
-0.003912968508
-0.004078068874
-0.004175044843
-0.004243601623
-0.004274067592
-0.004224468405
-0.004042382226
-0.003684042885
-0.003134920511
-0.002420774132
-0.001627492644
-0.0008974550425
-0.0004188856743
-0.0003927348851
-0.0009821613272
-0.002254255775
-0.004226053413
-0.006821139951
-0.005552189507
-0.006266961791
-0.006765006837
-0.006978611947
-0.007191500017
-0.007438756044
-0.007691736864
-0.007876079593
-0.007895409675
-0.007653363392
-0.007079797915
-0.006151816598
-0.004936135783
-0.003597470139
-0.002406820594
-0.001707649289
-0.001836443749
-0.003008157257
-0.00536126571
-0.008654539425
-0.009431304239
-0.01007757762
-0.01059421096
-0.0109060319
-0.01132079792
-0.01186986854
-0.01250432221
-0.01311176206
-0.01353908875
-0.0136140257
-0.01317276476
-0.01211133292
-0.01041842716
-0.008247379589
-0.005947717716
-0.004053874354
-0.003182576347
-0.003835635459
-0.006418836682
-0.01048353773
-0.01431181009
-0.01487083783
-0.01541760957
-0.01587636083
-0.01658341723
-0.0175725519
-0.01877829214
-0.0200492868
-0.02116674546
-0.02186200703
-0.0218453254
-0.02086013031
-0.01876008596
-0.01560888233
-0.01178470624
-0.008027899923
-0.005351277281
-0.00475204145
-0.007173105061
-0.01197082403
-0.0201480246
-0.02059838796
-0.02116839569
-0.02178986849
-0.02284432892
-0.02438142234
-0.02632899507
-0.02850208973
-0.03061487441
-0.03228991584
-0.03308115287
-0.03252653149
-0.03026868795
-0.02616566191
-0.02051292661
-0.01419317373
-0.008681949909
-0.005717892613
-0.007210897091
-0.01245790734
-0.02684887074
-0.0271548624
-0.02769517086
-0.02841507544
-0.02978035228
-0.03187903837
-0.03464741046
-0.03787679222
-0.04121989086
-0.04419015498
-0.04617278641
-0.04646350774
-0.04444822782
-0.039646027
-0.03210816618
-0.02268722004
-0.01325637777
-0.006476877105
-0.005800247395
-0.0107570189
-0.03432629531
-0.03441004487
-0.03478133799
-0.03539598886
-0.03688245044
-0.03939938893
-0.04290801546
-0.0471842687
-0.05182552647
-0.05624312262
-0.05966424646
-0.06117561582
-0.05976495221
-0.05464216762
-0.04542859852
-0.0326884848
-0.01844313665
-0.006237101538
-0.001666023267
-0.004866170032
-0.04260084691
-0.04227088354
-0.04218720274
-0.04228723524
-0.04350427251
-0.04610588391
-0.05008779029
-0.05520729298
-0.0610009633
-0.06678155416
-0.07162555656
-0.07439904301
-0.07381959418
-0.06866309412
-0.05806135428
-0.04205231252
-0.02243151448
-0.00324956873
0.007353890651
0.008347553211
-0.05200118573
-0.05075242013
-0.04966957193
-0.04857062608
-0.0489179703
-0.05111044677
-0.05516192235
-0.06078416111
-0.06742258988
-0.07427664148
-0.08026984214
-0.08406421067
-0.08412000418
-0.07882837912
-0.06683502265
-0.0475166561
-0.02212142526
0.005507308669
0.02472039322
0.03353171825
-0.06364713173
-0.06018107284
-0.05708980774
-0.05375713776
-0.05245799484
-0.05367179881
-0.05735528825
-0.0631276974
-0.07025119827
-0.07778947024
-0.08448168412
-0.08877608549
-0.08889021023
-0.08283315756
-0.06884587516
-0.04561700585
-0.01374846858
0.02441983904
0.05554240104
0.07735823334
-0.08017862586
-0.07106785744
-0.06411492578
-0.05715979157
-0.05342586472
-0.0532091305
-0.05625161169
-0.06190538307
-0.06924960875
-0.07710738971
-0.08400322203
-0.08814395233
-0.08747403706
-0.07965202023
-0.06247679004
-0.03404915299
0.005564653851
0.05859566182
0.1058238688
0.1480684212
-0.1105014112
-0.08584944821
-0.07160241513
-0.0589681011
-0.05191048276
-0.0498792944
-0.0520977161
-0.05750245542
-0.06485223988
-0.07270078963
-0.07933271162
-0.08270731246
-0.08051512948
-0.06988390203
-0.04823092842
-0.01272250338
0.03823530651
0.1071314065
0.1779779507
0.2564756893
-0.1684328637
-0.09990480255
-0.07500613085
-0.05479645385
-0.04461744452
-0.04158297228
-0.0437141263
-0.04937655422
-0.05701106974
-0.06496416391
-0.07135534584
-0.07397466448
-0.07012503027
-0.05701073286
-0.03102728582
0.0119291972
0.07559838177
0.1664028654
0.2761605806
0.4377030174
-0.3984241918
-0.1380961976
-0.07496864285
-0.04708752606
-0.03354853385
-0.03002839209
-0.03279914292
-0.03926044077
-0.04755303651
-0.05593300616
-0.06249418557
-0.06502414952
-0.0609908471
-0.04696651519
-0.01875511737
0.02993575624
0.1069549785
0.2334261372
0.4198789857
0.7800222695
)


// ************************************************************************* //
