/*--------------------------------*- C++ -*----------------------------------*\
  =========                 |
  \\      /  F ield         | OpenFOAM: The Open Source CFD Toolbox
   \\    /   O peration     | Website:  https://openfoam.org
    \\  /    A nd           | Version:  13
     \\/     M anipulation  |
\*---------------------------------------------------------------------------*/
FoamFile
{
    format      ascii;
    class       scalarField;
    location    "21";
    object      p_all;
}
// * * * * * * * * * * * * * * * * * * * * * * * * * * * * * * * * * * * * * //


400
(
-3.440398718e-09
-0.0004866499494
-0.001068534424
-0.001501300961
-0.001671550154
-0.00153438111
-0.001070604296
-0.0002752017389
0.0008380054938
0.002223826029
0.003792826099
0.005405798137
0.006883032736
0.00803178659
0.008690614463
0.008780324753
0.008344855901
0.00756718882
0.006749048695
0.006224365534
0.000491813997
-1.159898206e-05
-0.0005195488882
-0.0008602742998
-0.0009770206554
-0.0008452489314
-0.0004490794736
0.0002202601791
0.001157266629
0.002329904467
0.003667074978
0.005052649032
0.006331833267
0.007335644244
0.007920782572
0.008015921294
0.007657016304
0.006994480159
0.006266153438
0.005730808802
0.001096285479
0.0004607828786
-7.650723306e-05
-0.0003886353879
-0.0004918865202
-0.0003928556328
-8.178629888e-05
0.000456473247
0.001230368462
0.002226611147
0.003394696629
0.004637066097
0.005811919813
0.006754420071
0.007316180381
0.007413364919
0.007063479918
0.006388042314
0.005577419911
0.004877788357
0.001518760005
0.000697145684
5.515656126e-05
-0.000296058823
-0.0004379413995
-0.0004076356282
-0.0002002847362
0.000209087417
0.0008478732252
0.001726128202
0.00281544899
0.004032622517
0.0052364056
0.006245398152
0.006879361029
0.007015296605
0.006635121173
0.00583462201
0.004790911014
0.003805481576
0.001530959817
0.0005185919989
-0.0002534395266
-0.0006824269979
-0.0009050933304
-0.0009828495235
-0.000910781285
-0.0006489962797
-0.0001453871124
0.0006396934048
0.001705546486
0.002986097103
0.004337409195
0.005549099476
0.006386253262
0.006656865625
0.006279843642
0.005314618547
0.003945756046
0.002582660528
0.0009458926825
-0.0002403857477
-0.001146106097
-0.001677958358
-0.002020647499
-0.002253330079
-0.002365625155
-0.002297208768
-0.001964308161
-0.001288256391
-0.0002301725015
0.001173084143
0.002782666761
0.004355631289
0.005581757495
0.006162226117
0.005907534355
0.00480686832
0.003052570949
0.001215526611
-0.0003964603942
-0.001730151599
-0.002766012196
-0.003423286675
-0.003929584409
-0.00437707258
-0.004746132056
-0.004951539534
-0.004870421483
-0.004372413909
-0.003359999533
-0.00181708515
0.0001448519635
0.002260392626
0.004129529845
0.00530062141
0.005405046909
0.004290698457
0.002125031632
-0.0002976069542
-0.002625774865
-0.004074531905
-0.005234191023
-0.006040085186
-0.006759697134
-0.007496364311
-0.008220569824
-0.008820354932
-0.009127491543
-0.008945585333
-0.008093200459
-0.006465008925
-0.004103897976
-0.001265148385
0.001564657942
0.003735373338
0.004600757659
0.003741404633
0.001208429447
-0.001916622177
-0.005832387901
-0.007359162862
-0.008632309102
-0.009606463069
-0.01058874164
-0.01169586205
-0.01289212292
-0.0140412485
-0.01492698015
-0.01527432187
-0.01479038089
-0.01323503019
-0.01052134301
-0.006830541129
-0.002696983811
0.001007003346
0.00324288921
0.003129733498
0.0004132701553
-0.003501738462
-0.01005853819
-0.01162167932
-0.01298756401
-0.0141327202
-0.01540871683
-0.01695348778
-0.01873406785
-0.02059750609
-0.02228256458
-0.02342920779
-0.02361040665
-0.02240452605
-0.01952216137
-0.01497353722
-0.009249291948
-0.00341111095
0.001015886719
0.002435431335
-3.807486715e-05
-0.004730218788
-0.01529654001
-0.01684833387
-0.01826247299
-0.01953980671
-0.02109109198
-0.02309123127
-0.02552405307
-0.0282320068
-0.0309177889
-0.03313874684
-0.03432321619
-0.03383445033
-0.03111236144
-0.02588170258
-0.01844334271
-0.00992497009
-0.00234949909
0.001710081043
0.0002652686916
-0.00496682485
-0.02150312343
-0.0229839577
-0.02435495416
-0.02564671175
-0.02736294118
-0.02974221683
-0.03280270824
-0.03639515151
-0.04019730565
-0.04369346767
-0.04617246723
-0.04677496929
-0.04461911116
-0.03905339976
-0.03001409422
-0.01847447794
-0.006816778678
0.001243811508
0.002059932336
-0.003063591159
-0.02864260396
-0.02996250255
-0.03111218412
-0.0321711643
-0.03380369192
-0.03635198772
-0.03988498628
-0.04426829431
-0.04916012705
-0.05398073921
-0.05789268818
-0.05982549236
-0.05858192374
-0.05307727281
-0.04274150037
-0.02812555985
-0.01165862457
0.001862872901
0.006643957452
0.002932246051
-0.03678300844
-0.03776623769
-0.03835644744
-0.03874213895
-0.03986700779
-0.04222548881
-0.04594175027
-0.0508859203
-0.05668559198
-0.06269335957
-0.06795426332
-0.07120937124
-0.07097606662
-0.06575169929
-0.0544035951
-0.03684138559
-0.01511669564
0.00527785414
0.01620600205
0.01614753221
-0.04629565577
-0.04652684077
-0.0459176729
-0.04491932529
-0.04492865767
-0.04662143419
-0.05014696705
-0.05533948045
-0.0617587083
-0.06866338119
-0.07497062925
-0.07924315173
-0.07974554629
-0.07461199465
-0.06219026037
-0.04167285182
-0.01434744277
0.01428660441
0.03408531569
0.04111735096
-0.058200953
-0.0566965377
-0.05368133309
-0.05023135728
-0.04837285583
-0.04889287467
-0.0518641482
-0.05700405989
-0.06373681576
-0.07117810945
-0.0780825446
-0.08281894987
-0.08340707572
-0.07765724831
-0.0634756687
-0.03940328397
-0.005771429335
0.03270694168
0.06472971851
0.08336626635
-0.07475027627
-0.06935814804
-0.06161639813
-0.05420087994
-0.04967849815
-0.04860951404
-0.05078086744
-0.0556652519
-0.06247023354
-0.07010431894
-0.07711640888
-0.08164998893
-0.08145904736
-0.07401341864
-0.05677601973
-0.02766922151
0.0139845416
0.06498138503
0.113917053
0.1496373315
-0.1030292234
-0.08698020226
-0.06938100598
-0.05595821519
-0.04812432889
-0.04530692342
-0.04667979695
-0.05131638171
-0.05811155252
-0.0657271447
-0.0724970977
-0.07632881801
-0.07469788636
-0.06468305518
-0.04316098306
-0.007161344392
0.04544794554
0.1141276306
0.1904539028
0.2572725995
-0.1750671085
-0.1141289668
-0.07333838398
-0.05189000296
-0.04124379122
-0.03741555489
-0.03868232979
-0.04362026422
-0.05075143574
-0.05852154367
-0.06515228914
-0.06839556012
-0.06551807335
-0.05325293198
-0.02779715844
0.01526308973
0.08110414456
0.1756042902
0.3034881837
0.4514355956
-0.3549474576
-0.1545189378
-0.07007579328
-0.04275021164
-0.03140063553
-0.02745194974
-0.02923370851
-0.03495927736
-0.04280549266
-0.05106755764
-0.05790230538
-0.06107106589
-0.05782406459
-0.04478708163
-0.01753816368
0.0299304559
0.1071693061
0.2319731642
0.4334278647
0.7346176316
)


// ************************************************************************* //
