/*--------------------------------*- C++ -*----------------------------------*\
  =========                 |
  \\      /  F ield         | OpenFOAM: The Open Source CFD Toolbox
   \\    /   O peration     | Website:  https://openfoam.org
    \\  /    A nd           | Version:  13
     \\/     M anipulation  |
\*---------------------------------------------------------------------------*/
FoamFile
{
    format      ascii;
    class       surfaceScalarField;
    location    "21";
    object      phi_0;
}
// * * * * * * * * * * * * * * * * * * * * * * * * * * * * * * * * * * * * * //

dimensions      [0 3 -1 0 0 0 0];

internalField   nonuniform List<scalar> 
760
(
2.838274682e-06
-2.837830313e-06
-3.876333138e-05
4.160142479e-05
-0.0001257410882
8.697825024e-05
-0.0002432846254
0.0001175432542
-0.0003765314536
0.0001332468917
-0.0005129717079
0.0001364395935
-0.0006416312076
0.0001286597028
-0.0007518600985
0.000110229547
-0.0008327817389
8.092233397e-05
-0.0008738165496
4.103610937e-05
-0.00086628315
-7.532825513e-06
-0.0008057902801
-6.049289083e-05
-0.0006947472777
-0.0001110430005
-0.0005441553185
-0.0001505918484
-0.0003736524977
-0.0001705031516
-0.0002090481108
-0.0001646048443
-7.723401247e-05
-0.0001318141304
8.622109126e-07
-7.809627784e-05
1.916264404e-05
-1.830093743e-05
1.916242472e-05
-4.463741124e-05
4.179991072e-05
-0.0001953463956
0.0001923108182
-0.0004401707924
0.0003318027505
-0.0007486416909
0.0004260125575
-0.001088925392
0.0004735295776
-0.001431838916
0.0004793520981
-0.001750337872
0.0004471590857
-0.002018195523
0.0003780901609
-0.002209768548
0.0002724977392
-0.002301618138
0.0001328869188
-0.002275979549
-3.317111895e-05
-0.00212534317
-0.0002111286887
-0.001857121894
-0.0003792646575
-0.001496640216
-0.000511074086
-0.001086846758
-0.0005802963728
-0.0006832335544
-0.0005682176211
-0.0003435048274
-0.0004715432299
-0.0001131102795
-0.0003084918776
-9.153115429e-06
-0.0001222576414
1.000914199e-05
-0.0001030825799
0.0001448824193
-0.0003738080923
0.0004630362969
-0.0007696502044
0.00072764421
-0.001245493997
0.0009018550245
-0.001758055361
0.0009860890903
-0.002267307432
0.000988605213
-0.002735494015
0.0009153477181
-0.003125978789
0.0007685774954
-0.003403524026
0.0005500451876
-0.003536641572
0.0002660050924
-0.003501888392
-6.792529437e-05
-0.003289373339
-0.000423643168
-0.002908327215
-0.000760309513
-0.002391080357
-0.00102832072
-0.001793453731
-0.00117792347
-0.00118945186
-0.001172219465
-0.000658923238
-0.001002071853
-0.0002690819624
-0.0006983329957
-5.425153824e-05
-0.000337087475
-4.42425639e-05
-0.0001582538796
0.0003031368819
-0.0005443046879
0.0008490875218
-0.001082661985
0.001265999907
-0.001711233101
0.001530424485
-0.002376690977
0.001651545989
-0.003031570867
0.001643486096
-0.00363144257
0.001515220699
-0.004133153725
0.001270288777
-0.004495012711
0.0009119045915
-0.004679212696
0.0004502058652
-0.004656285501
-9.085187438e-05
-0.004411046233
-0.0006688816218
-0.003949206034
-0.001222149533
-0.003303255515
-0.001674270953
-0.002535419085
-0.00194575866
-0.001734535206
-0.001973101624
-0.001003772768
-0.001732833702
-0.0004386892866
-0.001263416477
-0.00010115147
-0.0006746261244
-0.0001453943383
-0.0002076203997
0.0005107567337
-0.0006987907551
0.001340257024
-0.001367640957
0.001934849032
-0.002135452641
0.002298234591
-0.002940076048
0.002456168294
-0.003729029422
0.002432438787
-0.004454232982
0.002240425297
-0.005068898158
0.001884954583
-0.005526856646
0.001369863454
-0.005784325263
0.0007076741952
-0.005803929372
-7.124728424e-05
-0.005560818419
-0.000911991568
-0.005050671067
-0.001732297174
-0.004298655185
-0.002426286729
-0.003367113024
-0.002877299874
-0.00235751745
-0.002982696558
-0.001400734529
-0.002689615786
-0.0006315625864
-0.002032589192
-0.0001521669703
-0.001154022511
-0.0002975615976
-0.0002502695498
0.0007610264002
-0.0008332095115
0.001923196571
-0.001617064445
0.002718702002
-0.002508688933
0.003189857551
-0.003438973781
0.003386453663
-0.004352694886
0.003346160413
-0.005200736446
0.003088467523
-0.005935138631
0.002619356207
-0.00650692404
0.00194164934
-0.006866517419
0.001067267398
-0.006966713695
2.8948433e-05
-0.006768567319
-0.001110139169
-0.006250749813
-0.002250116888
-0.00542234234
-0.003254694434
-0.00433722475
-0.003962416488
-0.003104658021
-0.004215263325
-0.001886396467
-0.003907876096
-0.0008695876412
-0.003049398945
-0.0002147750515
-0.001808834555
-0.0005123361315
-0.0002850925935
0.00104611847
-0.0009433943087
0.00258149773
-0.001822681234
0.003597988419
-0.002818432064
0.004185608565
-0.00385686198
0.004424884154
-0.004882322541
0.004371621651
-0.005847216135
0.004053361665
-0.006704981826
0.003477120661
-0.007405971366
0.002642638679
-0.00789594662
0.00155724106
-0.008117305344
0.0002503042513
-0.008014012391
-0.001213435539
-0.007541497611
-0.002722634277
-0.006682987168
-0.004113204864
-0.005471637044
-0.005173765008
-0.004013526863
-0.005673372127
-0.002498600949
-0.005422799972
-0.001178736021
-0.004369263712
-0.0002983309787
-0.002689238631
-0.0008106666808
-0.0003107009208
0.001356819177
-0.001024592842
0.003295389187
-0.001974820119
0.004548216562
-0.00304864343
0.005259433975
-0.004169889786
0.005546131551
-0.005284753346
0.005486485628
-0.006349759371
0.005118367828
-0.007322713713
0.004450073736
-0.008156440785
0.00347636503
-0.008794974568
0.00219577159
-0.009172401114
0.0006277260033
-0.009215626977
-0.00117021347
-0.008853258524
-0.003085002464
-0.008033513017
-0.004932948481
-0.006753253407
-0.006454023132
-0.005096014445
-0.00733060955
-0.003265807579
-0.007253006615
-0.001584766626
-0.006050304317
-0.0004132846454
-0.003860721598
-0.001223952817
-0.0003259732582
0.001682792831
-0.001072682947
0.004042099992
-0.002064177555
0.005539712538
-0.003182159234
0.0063774174
-0.004350015557
0.006713988793
-0.005517853242
0.006654322971
-0.006648937174
0.00624945096
-0.007708845095
0.005509980536
-0.008657187523
0.004424706888
-0.009441420853
0.002980001847
-0.009992809709
0.001179111505
-0.01022579878
-0.0009372267508
-0.01004347945
-0.003267320431
-0.009353537104
-0.005622889284
-0.008100514016
-0.007707046235
-0.00631809853
-0.009113024989
-0.004193866052
-0.009377241567
-0.002108645664
-0.008135525472
-0.0005709802782
-0.005398388865
-0.001794934296
-0.0003310586954
0.002013851728
-0.001086602622
0.004797645371
-0.002085528507
0.006538639552
-0.003205625599
0.007497515135
-0.004371353238
0.007879717012
-0.005538615827
0.007821585478
-0.006679994535
0.007390829597
-0.007772495191
0.006602481514
-0.008787691382
0.005439903338
-0.009683502738
0.003875810556
-0.01039723116
0.001892838388
-0.01084053161
-0.0004939263591
-0.01089916873
-0.003208683382
-0.0104421417
-0.006079917752
-0.009350627139
-0.008798562407
-0.007578142728
-0.01088551016
-0.005248039805
-0.01170734526
-0.002758917956
-0.0106246472
-0.0007832104429
-0.007374095146
-0.002578141953
-0.0003288374887
0.002342689645
-0.001071797272
0.005540605933
-0.002042898677
0.007509741361
-0.003116302264
0.008570918683
-0.004218973261
0.008982388149
-0.005314713923
0.008917326934
-0.006388068454
0.008464185943
-0.00743106935
0.007645484047
-0.008432525526
0.00644135987
-0.009368576434
0.004811859337
-0.01019344283
0.002717702762
-0.01082984838
0.000142478913
-0.01116163447
-0.002876898452
-0.01103146369
-0.006210089197
-0.01025795852
-0.009572066504
-0.00869095239
-0.01245251552
-0.006331727534
-0.01406656764
-0.0035187289
-0.01343764611
-0.001060565836
-0.009832258741
-0.003638706611
-0.0003269367169
0.002669626583
-0.001044533173
0.006258202298
-0.001955490083
0.008420698008
-0.002929362292
0.009544790777
-0.003898117418
0.009951143154
-0.004836775201
0.009855985702
-0.005744995136
0.009372408748
-0.006633110897
0.008533601798
-0.00751149495
0.007319742677
-0.008381124553
0.005681487841
-0.009223353371
0.003559932028
-0.009987612548
0.0009067385873
-0.01057571247
-0.002288799898
-0.01082789385
-0.005957907611
-0.0105184944
-0.0098814648
-0.009389571853
-0.0135814385
-0.007269269815
-0.01618686903
-0.004327289569
-0.01637962811
-0.001408177205
-0.01275137529
-0.005046884499
-0.0003406358982
0.003010262072
-0.001036995269
0.006954561051
-0.001863215361
0.00924691766
-0.002683270798
0.01036484639
-0.003440066248
0.01070793895
-0.004126092292
0.01054201263
-0.004760561892
0.01000687997
-0.005374985717
0.009148027208
-0.006003735559
0.007948491963
-0.006676152225
0.006353903976
-0.007407401047
0.00429118192
-0.008185525505
0.001684863797
-0.00895191997
-0.001522404559
-0.009575142962
-0.005334682799
-0.009822567298
-0.009634041089
-0.009354629227
-0.0140493779
-0.007804817046
-0.01773668104
-0.005060288733
-0.01912415315
-0.001817055595
-0.01599460801
-0.006863936478
-0.000397466015
0.003407727805
-0.001102953021
0.007660047308
-0.001829519068
0.009973482966
-0.002438720587
0.01097404779
-0.002898050307
0.01116726924
-0.003228919241
0.0108728828
-0.003476629678
0.01025459073
-0.003696409409
0.009367806827
-0.003946706176
0.008198789358
-0.004284523372
0.006691723693
-0.004759459024
0.004766119146
-0.005403474857
0.002328878127
-0.006212418427
-0.0007134609939
-0.007114121659
-0.004432979614
-0.007919345531
-0.008828819494
-0.008266741743
-0.01370198281
-0.007624208672
-0.01837921461
-0.005517320132
-0.02123104047
-0.0022493064
-0.01926262169
-0.009113245691
-0.0005438845433
0.003951612498
-0.001321355763
0.008437518003
-0.00193411945
0.01058624542
-0.002259451921
0.01129937842
-0.002318248756
0.01122606569
-0.002179780789
0.01073441667
-0.001924215769
0.009999026426
-0.00163253298
0.009076123617
-0.001385004681
0.007951260898
-0.001261625343
0.006568345414
-0.00134098512
0.004845478707
-0.00169543385
0.002683326356
-0.002378737159
-3.015374015e-05
-0.003398002976
-0.003413711371
-0.004656763977
-0.007570058794
-0.005856348118
-0.01250240231
-0.006389329612
-0.01784623755
-0.00541839861
-0.02220197262
-0.002614399754
-0.02206661617
-0.01172764343
-0.0008471468575
0.004798759212
-0.001782594249
0.009372964763
-0.002227135686
0.01103078536
-0.002136277915
0.01120851794
-0.001641897445
0.01073168563
-0.0008885160925
0.009981037156
-1.258428308e-07
0.009110637759
0.0009170413144
0.008158956139
0.001765909977
0.007102392467
0.002451572787
0.005882683828
0.002876329196
0.00442072294
0.002938216184
0.002621440523
0.00253474456
0.0003733176373
0.001578992384
-0.002457963226
4.599011874e-05
-0.006037056012
-0.001913177884
-0.01054322933
-0.003759411438
-0.01599999916
-0.004401189799
-0.02156019317
-0.002732016907
-0.02373579441
-0.01445965849
-0.001372013583
0.006170772139
-0.002496523914
0.01049747352
-0.002536593937
0.01107085545
-0.001727405025
0.01039932818
-0.0004148633255
0.009419143616
0.00115712647
0.008409047751
0.002824136772
0.007443626349
0.004465370066
0.006517722192
0.005980492991
0.005587271683
0.00727322517
0.004589954051
0.008240862876
0.003453086126
0.008767518748
0.00209478653
0.008720048698
0.0004207855443
0.007951096068
-0.001689013477
0.006319938925
-0.004405902547
0.003779976615
-0.008003270253
0.0006339030547
-0.01285392651
-0.002017970714
-0.0189083234
-0.002303652009
-0.02345010948
-0.01676331265
-0.002138550751
0.008309322333
-0.002953008355
0.01131192972
-0.001765572954
0.009883421153
0.0003965885121
0.008237168485
0.002913657478
0.006902074788
0.005502427827
0.005820276029
0.008015665776
0.004930386689
0.0103609367
0.004172452141
0.01246666537
0.003481544395
0.01425954426
0.002797073818
0.01565236407
0.002060266833
0.0165359751
0.001211182119
0.0167701051
0.0001866552458
0.01617882337
-0.001097729731
0.01454248063
-0.002769557938
0.01162271833
-0.00508351128
0.007329374075
-0.00856057914
0.002355995176
-0.01393494226
-0.0009249191382
-0.02016919111
-0.01768823464
-0.002476005963
0.01078532878
-1.635171477e-06
0.008837556292
0.004172437435
0.005709345946
0.008290106671
0.004119498255
0.01204174178
0.003150440465
0.0154028608
0.002459157137
0.01838015807
0.00195308856
0.0209847706
0.001567839596
0.02321717141
0.001249145547
0.02505809521
0.0009561509991
0.02646216092
0.0006561993596
0.02735004933
0.0003232930473
0.02760287757
-6.617319982e-05
0.02705663773
-0.0005514879392
0.02546743589
-0.001180355913
0.02247214345
-0.002088220274
0.01756525727
-0.003653688771
0.01036374346
-0.006733434804
0.002451467087
-0.01225691528
-0.01523676903
0.01078532926
0.01962288584
0.0253322311
0.02945172937
0.03260216939
0.03506132539
0.03701441399
0.0385822556
0.03983140245
0.04078755397
0.04144375558
0.04176704754
0.04170087186
0.04114938368
0.03996902587
0.03788080546
0.03422711745
0.02749368247
0.01523676858
)
;

boundaryField
{
    movingWall
    {
        type            calculated;
        value           uniform 0;
    }
    fixedWalls
    {
        type            calculated;
        value           uniform 0;
    }
    frontAndBack
    {
        type            empty;
    }
}


// ************************************************************************* //
