/*--------------------------------*- C++ -*----------------------------------*\
  =========                 |
  \\      /  F ield         | OpenFOAM: The Open Source CFD Toolbox
   \\    /   O peration     | Website:  https://openfoam.org
    \\  /    A nd           | Version:  13
     \\/     M anipulation  |
\*---------------------------------------------------------------------------*/
FoamFile
{
    format      ascii;
    class       volVectorField;
    location    "21";
    object      U_0;
}
// * * * * * * * * * * * * * * * * * * * * * * * * * * * * * * * * * * * * * //

dimensions      [0 1 -1 0 0 0 0];

internalField   nonuniform List<vector> 
400
(
(0.0001536741087 -0.000156773207 0)
(-0.0001727241522 5.117540148e-05 0)
(-0.001490762203 0.0002734190877 0)
(-0.003594042682 0.0004155423498 0)
(-0.006161645442 0.0004894206715 0)
(-0.008911860741 0.0005144678794 0)
(-0.01161201521 0.0005003330266 0)
(-0.01404851781 0.0004471786505 0)
(-0.01600552126 0.0003501104665 0)
(-0.01726390872 0.0002053073641 0)
(-0.01762330969 1.632726459e-05 0)
(-0.01694393324 -0.0002010091931 0)
(-0.01519842629 -0.0004164120704 0)
(-0.01251813155 -0.0005882715697 0)
(-0.009214357395 -0.0006724885386 0)
(-0.005756033985 -0.0006359861313 0)
(-0.002694373689 -0.0004702630803 0)
(-0.0005364416272 -0.0002002260309 0)
(0.0004261372827 0.0001009581552 0)
(0.0002743345334 0.0002681100394 0)
(-6.377689779e-05 0.0001703985658 0)
(-0.001945339876 0.00182774476 0)
(-0.00598400164 0.003513682559 0)
(-0.01166793275 0.004672830031 0)
(-0.01830575043 0.005275059072 0)
(-0.02527464207 0.005391922232 0)
(-0.03201699562 0.005075290072 0)
(-0.03800333201 0.004337876118 0)
(-0.0427110376 0.003175848746 0)
(-0.04563751259 0.001607609825 0)
(-0.04635314313 -0.0002870230166 0)
(-0.04458609853 -0.002339806181 0)
(-0.04032034918 -0.00429009602 0)
(-0.03387820234 -0.005813716523 0)
(-0.02595303703 -0.006587750329 0)
(-0.01755986593 -0.006383280937 0)
(-0.009882398973 -0.00516333698 0)
(-0.00402064559 -0.003158576409 0)
(-0.0006689007344 -0.0009274860055 0)
(0.0001799466916 0.0004730373378 0)
(-0.0003431512132 0.0016370592 0)
(-0.004123273958 0.006017445446 0)
(-0.01092090467 0.009896122382 0)
(-0.01986434366 0.01251107317 0)
(-0.0299644163 0.01381880613 0)
(-0.04037890592 0.01393990993 0)
(-0.05033834585 0.01296707197 0)
(-0.05910118835 0.01093281166 0)
(-0.0659414612 0.007855856401 0)
(-0.07017576261 0.003819257848 0)
(-0.07123261563 -0.000952774937 0)
(-0.0687551785 -0.006044829992 0)
(-0.06271763988 -0.01084868326 0)
(-0.05352700077 -0.01462673002 0)
(-0.04207394041 -0.01664912499 0)
(-0.02969108673 -0.0163926164 0)
(-0.01798114553 -0.0137589523 0)
(-0.008508609324 -0.009247226041 0)
(-0.002415360949 -0.004039773646 0)
(-4.320513115e-07 -0.0001393550683 0)
(-0.0005945816421 0.004264235496 0)
(-0.006210137848 0.01262132545 0)
(-0.01564927465 0.01929394935 0)
(-0.02761723367 0.02362898107 0)
(-0.0408248623 0.02568273229 0)
(-0.05426479885 0.02566090715 0)
(-0.06703404875 0.02370663151 0)
(-0.07826086604 0.01987745183 0)
(-0.08708899321 0.01422504961 0)
(-0.09270641875 0.006916418978 0)
(-0.09441706513 -0.001649967192 0)
(-0.09174832455 -0.01076848111 0)
(-0.08458058283 -0.01942056328 0)
(-0.07327765925 -0.02636530785 0)
(-0.05878413579 -0.03034603585 0)
(-0.04263668366 -0.03040923242 0)
(-0.0268235378 -0.02628191678 0)
(-0.01345290337 -0.01869072148 0)
(-0.004295711843 -0.009489337691 0)
(-0.0001558101049 -0.001669002813 0)
(-0.0008112951076 0.007946580882 0)
(-0.008088679968 0.02144509256 0)
(-0.01994981041 0.03143291674 0)
(-0.03468377854 0.0376647846 0)
(-0.05071669079 0.04045056663 0)
(-0.06691471193 0.04014881034 0)
(-0.08229914702 0.03697565581 0)
(-0.09593068403 0.03101572637 0)
(-0.1068749066 0.02234632735 0)
(-0.1142175921 0.01120528955 0)
(-0.1171247469 -0.001850573311 0)
(-0.114945405 -0.01583533237 0)
(-0.1073541056 -0.02930586155 0)
(-0.09452438505 -0.04045365792 0)
(-0.07730571407 -0.04735898319 0)
(-0.05734033759 -0.04843218543 0)
(-0.03701523069 -0.04299839055 0)
(-0.0191436468 -0.03185636848 0)
(-0.006394158088 -0.01753228983 0)
(-0.0002988069445 -0.0041599213 0)
(-0.0009930970043 0.0125530338 0)
(-0.009712554288 0.03224548514 0)
(-0.0237007241 0.04603428847 0)
(-0.04088349593 0.05433319898 0)
(-0.05944205935 0.05786159614 0)
(-0.07815741461 0.05721340396 0)
(-0.09602593396 0.05270934854 0)
(-0.1120945327 0.04445959463 0)
(-0.1253952389 0.03254142572 0)
(-0.1349330086 0.01721758146 0)
(-0.1397204715 -0.0008572539038 0)
(-0.1388652496 -0.02047659558 0)
(-0.1317204454 -0.03980290497 0)
(-0.118107019 -0.05641810005 0)
(-0.09859509245 -0.06758155126 0)
(-0.07478000362 -0.07077578426 0)
(-0.04941187348 -0.06454934163 0)
(-0.02617398476 -0.04946480319 0)
(-0.008992179631 -0.02867411467 0)
(-0.000469998456 -0.007754453614 0)
(-0.001135928378 0.01793858297 0)
(-0.01103545442 0.04472800252 0)
(-0.02677987135 0.0627554741 0)
(-0.0460075163 0.07329864192 0)
(-0.06670847469 0.0776294606 0)
(-0.08762355527 0.07666276923 0)
(-0.1077734783 0.07086013162 0)
(-0.126244548 0.06035338079 0)
(-0.1420847896 0.04518046224 0)
(-0.1542534986 0.02555654301 0)
(-0.1616179197 0.002134549109 0)
(-0.1630110384 -0.02376859493 0)
(-0.1573744958 -0.05000672934 0)
(-0.1440169389 -0.073559337 0)
(-0.1230020291 -0.0907220548 0)
(-0.09562415186 -0.09769664315 0)
(-0.06482276701 -0.09170925468 0)
(-0.0352255981 -0.07253514047 0)
(-0.01245036868 -0.04375076873 0)
(-0.0007183408084 -0.01277173732 0)
(-0.001233486764 0.02393330106 0)
(-0.01200376556 0.05853337357 0)
(-0.02905013222 0.08116169462 0)
(-0.04980498364 0.09411548316 0)
(-0.07212324026 0.09934489586 0)
(-0.09474953173 0.09817028499 0)
(-0.1167771079 0.09123512472 0)
(-0.1373880436 0.07869185451 0)
(-0.1557088284 0.06049587019 0)
(-0.1707157492 0.03672839953 0)
(-0.1811837017 0.007913323776 0)
(-0.1856968246 -0.02467853616 0)
(-0.1827567062 -0.0587482906 0)
(-0.1710400261 -0.09077001649 0)
(-0.149858891 -0.1160158398 0)
(-0.1198395318 -0.1290652856 0)
(-0.0837217316 -0.1251221096 0)
(-0.04692435606 -0.1022681789 0)
(-0.01717130098 -0.06393549252 0)
(-0.001104344518 -0.01973390767 0)
(-0.001281488614 0.03033956362 0)
(-0.01257479324 0.07323455003 0)
(-0.0303890451 0.1007128891 0)
(-0.05202416807 0.1161914666 0)
(-0.07524820715 0.1224071798 0)
(-0.09884805268 0.121170772 0)
(-0.122034967 0.1133573155 0)
(-0.144146348 0.09915005647 0)
(-0.1644642812 0.07838879043 0)
(-0.1820775527 0.05093933543 0)
(-0.1957779463 0.01706139426 0)
(-0.2040077421 -0.02220949362 0)
(-0.2048983598 -0.06465206098 0)
(-0.1964677755 -0.1064597097 0)
(-0.1770762461 -0.1419897592 0)
(-0.1462468201 -0.1639966201 0)
(-0.1058872035 -0.1649114911 0)
(-0.06166511822 -0.139795626 0)
(-0.0235774095 -0.09067977795 0)
(-0.001708522688 -0.02938554452 0)
(-0.00128446892 0.03694568935 0)
(-0.01275209282 0.0883556125 0)
(-0.03075041033 0.1207694504 0)
(-0.0524981573 0.1387690477 0)
(-0.07571101672 0.1459758203 0)
(-0.09925078828 0.1447803413 0)
(-0.1224895999 0.1363520714 0)
(-0.1449806057 0.1209349989 0)
(-0.1662481358 0.09824538874 0)
(-0.1856150646 0.06787915672 0)
(-0.20205072 0.02971659906 0)
(-0.2140469858 -0.01563667104 0)
(-0.2195563359 -0.06632523387 0)
(-0.2160589363 -0.1186274259 0)
(-0.2008997966 -0.1663377905 0)
(-0.1721100032 -0.200485511 0)
(-0.1299615904 -0.2101548677 0)
(-0.07933695558 -0.1857331333 0)
(-0.03206207436 -0.1255502945 0)
(-0.002642561674 -0.04271138911 0)
(-0.001265642382 0.04356404727 0)
(-0.01263627741 0.1034248562 0)
(-0.03025097016 0.1406279745 0)
(-0.05126341969 0.1609347858 0)
(-0.0733582303 0.1689551505 0)
(-0.09550794349 0.1677592573 0)
(-0.1172917436 0.1588879769 0)
(-0.1385382293 0.1426990086 0)
(-0.1590993549 0.1188121447 0)
(-0.1786595945 0.08654499307 0)
(-0.1965514037 0.04533319501 0)
(-0.2115676283 -0.004806936577 0)
(-0.2217849861 -0.06268748698 0)
(-0.2244446006 -0.1251447829 0)
(-0.2160453677 -0.1860306395 0)
(-0.1929516591 -0.2352010755 0)
(-0.1530266903 -0.2583243448 0)
(-0.09892030727 -0.239511424 0)
(-0.04286441398 -0.1698866996 0)
(-0.004059991623 -0.06093839214 0)
(-0.001281188067 0.05010360429 0)
(-0.01249232954 0.1180717626 0)
(-0.02927424769 0.1595926683 0)
(-0.04869066334 0.1816615141 0)
(-0.0684164377 0.190020683 0)
(-0.08759741423 0.1885351059 0)
(-0.1060849283 0.1792009263 0)
(-0.1240441854 0.1625574041 0)
(-0.1417260097 0.1381871251 0)
(-0.1592804417 0.1051740644 0)
(-0.1765678426 0.06251585225 0)
(-0.1929375491 0.009561778294 0)
(-0.2069499151 -0.05340348416 0)
(-0.2160629705 -0.1242713341 0)
(-0.2163883938 -0.1977721107 0)
(-0.2028362831 -0.2636494533 0)
(-0.1704190891 -0.3049266007 0)
(-0.1180286782 -0.2985666312 0)
(-0.0558121595 -0.2241819161 0)
(-0.006161254185 -0.08548486053 0)
(-0.001443187726 0.05669212252 0)
(-0.01283917507 0.132172289 0)
(-0.02858084527 0.1770736625 0)
(-0.04559319544 0.1998701747 0)
(-0.06160048484 0.2076770627 0)
(-0.07605438987 0.2052827512 0)
(-0.08918806389 0.1952071538 0)
(-0.1015731415 0.1782291353 0)
(-0.1139066854 0.1539645682 0)
(-0.1268570171 0.1213488405 0)
(-0.140904672 0.07902444838 0)
(-0.1561322902 0.02571247939 0)
(-0.1719108794 -0.0392961449 0)
(-0.186442399 -0.1153208395 0)
(-0.1961636769 -0.1988164846 0)
(-0.1952401209 -0.2808742681 0)
(-0.1760348417 -0.3436663683 0)
(-0.1326049212 -0.3576713406 0)
(-0.0699027328 -0.2871312742 0)
(-0.009182110216 -0.1177767893 0)
(-0.001961025791 0.06387182403 0)
(-0.01457309398 0.1460368485 0)
(-0.0294025807 0.1926779323 0)
(-0.04324521757 0.2144683741 0)
(-0.05405820828 0.2203061693 0)
(-0.06186831056 0.21602143 0)
(-0.06747394922 0.2046661005 0)
(-0.07193908618 0.187264859 0)
(-0.07642636192 0.1635108202 0)
(-0.08210828911 0.1322826875 0)
(-0.0900738451 0.09200355924 0)
(-0.10118067 0.04092314242 0)
(-0.1157894008 -0.02255040796 0)
(-0.1332849276 -0.09925237446 0)
(-0.1512523684 -0.187963911 0)
(-0.1642844834 -0.2826658434 0)
(-0.1631522098 -0.3673729102 0)
(-0.1369957711 -0.4088653342 0)
(-0.08276276485 -0.354495621 0)
(-0.01331244057 -0.1587785566 0)
(-0.003200103611 0.07289043051 0)
(-0.01911391704 0.1606062104 0)
(-0.033425586 0.2062073931 0)
(-0.04311822541 0.2242722168 0)
(-0.04688192131 0.226117418 0)
(-0.04581896125 0.2186402846 0)
(-0.0415670513 0.2052959454 0)
(-0.03577957348 0.1872559928 0)
(-0.03007338168 0.1642651088 0)
(-0.02604853873 0.1352025263 0)
(-0.0252923408 0.09841392498 0)
(-0.02933074661 0.05191007694 0)
(-0.03948123228 -0.006475135889 0)
(-0.05649772778 -0.0788107513 0)
(-0.07977243779 -0.1662786566 0)
(-0.1057045558 -0.2668761121 0)
(-0.1253834541 -0.3695403475 0)
(-0.1243543981 -0.4423245909 0)
(-0.09008226746 -0.4183182952 0)
(-0.01837708008 -0.2081710142 0)
(-0.005666830438 0.08618820152 0)
(-0.02838530284 0.1775341996 0)
(-0.04222642841 0.2172880712 0)
(-0.04564384914 0.2275399448 0)
(-0.03933655488 0.2227740844 0)
(-0.02633955503 0.2106610866 0)
(-0.00945818918 0.1946711921 0)
(0.009005128149 0.1758613943 0)
(0.02704852225 0.1539063666 0)
(0.04278474434 0.1276799035 0)
(0.05431130724 0.0955584405 0)
(0.05964800044 0.05555124639 0)
(0.0567427047 0.00532616939 0)
(0.04361897254 -0.05782797964 0)
(0.01888342042 -0.1368991029 0)
(-0.01674695853 -0.2340606165 0)
(-0.05708002784 -0.345747766 0)
(-0.08695807707 -0.4478558864 0)
(-0.08512881912 -0.4672171939 0)
(-0.02316825275 -0.2638837843 0)
(-0.009909361427 0.1089442567 0)
(-0.04386551147 0.198868866 0)
(-0.05438692273 0.2238885072 0)
(-0.04552323385 0.22049046 0)
(-0.0232092075 0.206283489 0)
(0.006455861533 0.1885141817 0)
(0.0394275842 0.1698174547 0)
(0.07295478147 0.1506658722 0)
(0.1049104233 0.1304377273 0)
(0.1333903067 0.1079456744 0)
(0.1564526145 0.08166896681 0)
(0.1719543857 0.04981142482 0)
(0.1774421514 0.01025412766 0)
(0.170121691 -0.03967093116 0)
(0.1469827048 -0.1036426211 0)
(0.1056418824 -0.1868575548 0)
(0.0474818958 -0.2940905392 0)
(-0.01597635294 -0.4158801855 0)
(-0.05855356966 -0.4868847526 0)
(-0.02486591281 -0.322184718 0)
(-0.01769752134 0.1521646332 0)
(-0.06153625435 0.2237715155 0)
(-0.05326228697 0.2170599086 0)
(-0.01645150466 0.1936060181 0)
(0.03206073345 0.1692370784 0)
(0.08398136135 0.1470827551 0)
(0.1354777485 0.1275254154 0)
(0.1843788227 0.1099216995 0)
(0.2291638156 0.0931538372 0)
(0.2684569549 0.07596020971 0)
(0.3007108372 0.05701633672 0)
(0.3240124201 0.03488702563 0)
(0.3359164484 0.007966304168 0)
(0.3333427886 -0.02579829697 0)
(0.3124004976 -0.06956758543 0)
(0.2683946756 -0.1292270283 0)
(0.1970395697 -0.2155953651 0)
(0.1007136046 -0.3377027982 0)
(0.002979365606 -0.4562066389 0)
(-0.01632110821 -0.3684314425 0)
(-0.02404152496 0.2086823044 0)
(-0.03760438213 0.2307887475 0)
(0.03743654838 0.1765952136 0)
(0.1247379006 0.1364545109 0)
(0.2047219829 0.1083007355 0)
(0.2759557208 0.08727751412 0)
(0.3392339728 0.07119520139 0)
(0.3949878344 0.05843184004 0)
(0.4433883489 0.04755830689 0)
(0.4842187409 0.03741368147 0)
(0.5169223756 0.02698451715 0)
(0.5402428754 0.01535469027 0)
(0.5521961665 0.001594231451 0)
(0.5500269326 -0.01540067482 0)
(0.5298057782 -0.03749189232 0)
(0.4859324093 -0.06859143965 0)
(0.4099251079 -0.1188273758 0)
(0.2899968006 -0.2092925241 0)
(0.1326235611 -0.3383020554 0)
(0.03833341907 -0.3401741742 0)
(0.2419908976 0.1092599655 0)
(0.3138372032 0.09730026405 0)
(0.4448705278 0.05704844444 0)
(0.5500879585 0.03509057836 0)
(0.6241644642 0.02364665726 0)
(0.6791688791 0.01657698525 0)
(0.7224608716 0.01184875209 0)
(0.7572695801 0.008600811457 0)
(0.7852302561 0.006229114023 0)
(0.807182715 0.004287642015 0)
(0.8233134653 0.002454365267 0)
(0.8332191663 0.0005071003549 0)
(0.8359835925 -0.001738425567 0)
(0.8301189563 -0.004432701254 0)
(0.8132285494 -0.007904154875 0)
(0.781323603 -0.01284087022 0)
(0.7260020971 -0.02129667177 0)
(0.6301117822 -0.03822428388 0)
(0.4593306074 -0.08580702388 0)
(0.3048673842 -0.1257481653 0)
)
;

boundaryField
{
    movingWall
    {
        type            calculated;
        value           uniform (1 0 0);
    }
    fixedWalls
    {
        type            calculated;
        value           uniform (0 0 0);
    }
    frontAndBack
    {
        type            empty;
    }
}


// ************************************************************************* //
