/*--------------------------------*- C++ -*----------------------------------*\
  =========                 |
  \\      /  F ield         | OpenFOAM: The Open Source CFD Toolbox
   \\    /   O peration     | Website:  https://openfoam.org
    \\  /    A nd           | Version:  13
     \\/     M anipulation  |
\*---------------------------------------------------------------------------*/
FoamFile
{
    format      ascii;
    class       volVectorField;
    location    "21";
    object      U_0;
}
// * * * * * * * * * * * * * * * * * * * * * * * * * * * * * * * * * * * * * //

dimensions      [0 1 -1 0 0 0 0];

internalField   nonuniform List<vector> 
400
(
(1.083501962e-05 -3.786970504e-05 0)
(-0.0006661611916 0.0004129654404 -1.54174936e-23)
(-0.002184947209 0.0009201785957 0)
(-0.004046878798 0.001312444822 0)
(-0.005970376775 0.001534662024 6.825887871e-25)
(-0.007760814298 0.001569434112 4.152841023e-24)
(-0.009282207002 0.001423195126 -7.310060112e-24)
(-0.01043337543 0.00111944555 7.596785144e-24)
(-0.01113418412 0.0006959252543 -2.100826859e-25)
(-0.01132458775 0.0002030491503 -4.003002631e-24)
(-0.01096952249 -0.0003001431949 5.812887478e-24)
(-0.01007049666 -0.0007473401982 -5.937253136e-23)
(-0.008678567809 -0.001075347762 -6.560993711e-23)
(-0.006902100217 -0.001232845346 -7.793308577e-23)
(-0.004910513954 -0.001192506382 4.579575937e-24)
(-0.002927431385 -0.0009618904637 -4.144522405e-24)
(-0.001205761065 -0.0005912912531 -2.003409889e-22)
(-1.95706671e-05 -0.0001700423844 0)
(0.000517793945 0.0001718916354 1.531180655e-25)
(0.0002226590621 0.000305851176 -2.835506534e-24)
(-0.000263361943 0.0008287094604 1.389587993e-25)
(-0.002702636374 0.003382916951 1.551387679e-23)
(-0.006905328923 0.005602895033 1.540533353e-25)
(-0.01194884683 0.007006176561 -8.460357825e-25)
(-0.01713003799 0.007551610911 1.156836754e-24)
(-0.0219689888 0.007292174897 1.300588869e-23)
(-0.02610334312 0.006320243556 1.451576766e-24)
(-0.029257575 0.004753093211 -7.346840721e-24)
(-0.03121845481 0.002736706442 1.018637537e-23)
(-0.03183399229 0.0004526309711 4.519640301e-24)
(-0.03102029491 -0.001883286078 -6.328980107e-24)
(-0.02878692457 -0.004021691519 2.958741289e-24)
(-0.0252664853 -0.005706752204 3.899648964e-23)
(-0.02072851762 -0.006705796914 -1.957833466e-24)
(-0.01558761831 -0.006852772686 3.76093578e-24)
(-0.01038433354 -0.006096551726 -9.764858593e-23)
(-0.005730319107 -0.004545842978 9.662311417e-23)
(-0.002233802362 -0.002507609271 -4.004173075e-25)
(-0.0001821769743 -0.0005028992478 4.105158983e-25)
(8.337584538e-05 0.000609506748 0)
(-0.0004186945117 0.002934255444 -2.916136284e-25)
(-0.004646423206 0.00880137257 1.710100075e-23)
(-0.01136834935 0.01323636572 -8.195559646e-24)
(-0.01932117246 0.01578722416 -2.059044429e-25)
(-0.02746551941 0.01652507957 2.022796233e-25)
(-0.03510700281 0.01563997104 8.729918109e-27)
(-0.04170096107 0.01335647586 -1.282024142e-24)
(-0.04682214752 0.009917558738 -4.592028041e-25)
(-0.05013593474 0.005601706344 -1.066623672e-23)
(-0.05139865281 0.0007452209207 0)
(-0.05046522086 -0.004239614333 0)
(-0.04732591042 -0.008883940172 2.675364058e-23)
(-0.04215010008 -0.01267786654 2.817383633e-23)
(-0.03530739773 -0.01513200627 -1.649403587e-24)
(-0.0273851951 -0.01585824221 4.857394891e-23)
(-0.01916727315 -0.01467055067 9.44245698e-23)
(-0.01155966679 -0.01169198217 4.001814445e-23)
(-0.005465129728 -0.007450330601 4.228914675e-25)
(-0.001451215096 -0.002936525266 1.028099711e-25)
(-9.072807679e-05 0.0002252650519 0)
(-0.0005022777998 0.006043500864 -4.254930874e-23)
(-0.006400589185 0.01636559266 -1.700300908e-23)
(-0.01552987415 0.02355189429 8.12240278e-24)
(-0.02627055244 0.02743310187 0)
(-0.0372755576 0.0283125206 0)
(-0.04767551868 0.0265801852 0)
(-0.05677945724 0.02262536257 -4.681139551e-26)
(-0.06403513218 0.0168324731 -2.096684848e-24)
(-0.06899143362 0.009621075383 0)
(-0.07128913934 0.001492503199 1.646406617e-24)
(-0.07069048138 -0.006932736569 2.809810139e-25)
(-0.06711414427 -0.01492454667 -2.817677544e-25)
(-0.06068520421 -0.02166042059 0)
(-0.05179643306 -0.02630878156 4.144508154e-23)
(-0.04114175485 -0.0281538804 -4.692785218e-23)
(-0.02971430623 -0.02676814053 -2.775322566e-23)
(-0.018734123 -0.02221155273 -3.987395061e-23)
(-0.009486702435 -0.01521749602 7.793489755e-25)
(-0.002976585631 -0.007298150846 9.758069334e-23)
(-0.0002318427232 -0.0008667604592 0)
(-0.0005314124078 0.01009179046 4.275633401e-23)
(-0.007980918476 0.02594384587 4.771738625e-25)
(-0.01939052171 0.03641724488 -4.662753854e-25)
(-0.03281331483 0.04184224135 0)
(-0.04663233116 0.04288211929 7.763710623e-25)
(-0.05983415568 0.04018956241 -7.656063943e-25)
(-0.07161191355 0.03433880808 3.664516162e-23)
(-0.08130453968 0.02585130175 1.839827864e-23)
(-0.08834203974 0.01527129105 6.213062874e-24)
(-0.09223073705 0.003248146518 -1.648324702e-24)
(-0.09258082251 -0.009402398292 0)
(-0.0891544416 -0.02166650907 4.387536e-25)
(-0.08194129204 -0.03235721329 1.015254136e-23)
(-0.0712535274 -0.04020138624 -4.361286078e-23)
(-0.05780835092 -0.0440096784 1.940747158e-24)
(-0.04277750281 -0.04293901894 4.244349289e-23)
(-0.0277493794 -0.03682665354 -3.885751881e-25)
(-0.01454807593 -0.02652332371 0)
(-0.004858668958 -0.01408334128 5.434370618e-23)
(-0.0003640615547 -0.002847250928 -2.561351015e-22)
(-0.0005270415704 0.0149944398 9.831633969e-23)
(-0.009374972539 0.0373782488 -4.900842451e-25)
(-0.02287478392 0.05168601238 0)
(-0.03881876902 0.05892395434 0)
(-0.0553703864 0.06023836305 -8.724402477e-23)
(-0.07140855954 0.0566038299 -8.49054767e-23)
(-0.08604306171 0.04878999095 -4.058976364e-23)
(-0.09852502524 0.03743246352 -1.500021906e-23)
(-0.1081673484 0.02315732282 -5.345996177e-24)
(-0.1143169861 0.006712060422 -8.158462742e-24)
(-0.1163778577 -0.01092594774 6.582801703e-24)
(-0.1138686708 -0.028478572 8.791862431e-24)
(-0.1065262021 -0.04435670698 -1.891078749e-23)
(-0.09444885654 -0.05673802917 4.458860514e-24)
(-0.07825323103 -0.0637676581 0)
(-0.05921771252 -0.06392119519 -1.587429483e-23)
(-0.03933255525 -0.05652737939 -1.950565961e-26)
(-0.02113805924 -0.04235117777 0)
(-0.007317387122 -0.02397928128 -1.51716367e-22)
(-0.0005214818662 -0.005925302899 6.048487656e-22)
(-0.000498953604 0.02063921429 -9.764673202e-23)
(-0.01052657692 0.05043864945 2.830467126e-22)
(-0.02582249179 0.06910412468 1.526052061e-22)
(-0.04400957373 0.07846966519 3.616719916e-24)
(-0.06309092991 0.08027261682 -7.316855604e-23)
(-0.0818833976 0.07586112514 9.034408544e-23)
(-0.09945351438 0.06620197027 -3.586935393e-24)
(-0.1149960252 0.05200740159 -1.727096061e-24)
(-0.1277235772 0.0339199744 2.520973077e-24)
(-0.1368182868 0.01270476692 7.367199969e-24)
(-0.1414424447 -0.01057965481 -6.483499849e-24)
(-0.1407975474 -0.0344470732 -9.749769449e-24)
(-0.1342495873 -0.05691065447 -3.260642369e-23)
(-0.1215231304 -0.0755136833 -3.636512917e-23)
(-0.1029492139 -0.08752249688 5.594828734e-25)
(-0.07974999417 -0.09037333348 0)
(-0.05425761757 -0.08242964371 0)
(-0.02986654954 -0.06396662035 -2.900221236e-24)
(-0.01066101329 -0.03798247345 2.964540905e-24)
(-0.0007349177584 -0.01049983156 1.027549902e-22)
(-0.0004478635545 0.02686438748 0)
(-0.01134665032 0.06478830847 2.001417739e-22)
(-0.02800961318 0.08827067873 8.95972322e-23)
(-0.04798778373 0.1000958249 0)
(-0.06919084079 0.102681001 1.568888565e-22)
(-0.09042455675 0.0977925598 0)
(-0.1107606408 0.08659296417 -1.427495048e-22)
(-0.1293842832 0.06982773445 6.510699113e-24)
(-0.145450356 0.04807745603 0)
(-0.1580075273 0.02201971861 0)
(-0.1659857167 -0.007325562727 -1.372814295e-24)
(-0.1682403981 -0.03837351497 -9.300715668e-25)
(-0.1636814087 -0.068819996 1.489864901e-22)
(-0.1514983464 -0.09555963034 -4.703015507e-23)
(-0.1314942683 -0.1148052816 -2.554750158e-24)
(-0.1045444815 -0.1225465511 1.528785309e-24)
(-0.0730829039 -0.1155312202 -1.552900801e-24)
(-0.04134413318 -0.09281597224 0)
(-0.01524997698 -0.05739916408 3.2003871e-24)
(-0.001044092547 -0.01714498538 -1.012006307e-21)
(-0.0003745073908 0.03345362203 0)
(-0.0117481586 0.07996698638 -1.127588638e-22)
(-0.02920214374 0.1086098124 -6.188704646e-22)
(-0.05030887899 0.1231916956 -3.753828655e-22)
(-0.07295091536 0.1268792161 0)
(-0.09597395752 0.1218990007 4.117516556e-22)
(-0.1185088569 0.1096141271 1.260135717e-22)
(-0.1397939658 0.09076875901 -5.578318507e-24)
(-0.1589999951 0.06580788702 5.550708831e-24)
(-0.1751231389 0.03521052719 0)
(-0.1869328528 -0.0001876063255 2.910293551e-23)
(-0.1929945213 -0.03888168593 4.691729878e-24)
(-0.1917592311 -0.07841739209 -1.075600259e-22)
(-0.1817672731 -0.115160842 7.99289952e-23)
(-0.1620391666 -0.1442318903 -2.417115025e-22)
(-0.1326914105 -0.159826757 0)
(-0.09576794209 -0.1562858854 0)
(-0.05600967883 -0.1302782996 0)
(-0.02147588002 -0.08379940078 0)
(-0.001500128825 -0.02665165875 5.567450663e-22)
(-0.0002875330763 0.04015052667 0)
(-0.01169265668 0.09541193407 -3.491724905e-22)
(-0.02924156119 0.1293754237 8.92970849e-22)
(-0.0506042079 0.1468953283 3.615750883e-22)
(-0.07369299698 0.1519416357 0)
(-0.09744131708 0.1472468817 -3.860740091e-22)
(-0.1210948432 0.1343966314 -3.172939385e-23)
(-0.1440189137 0.1141243579 3.331609888e-22)
(-0.165499859 0.08669324857 1.768655345e-22)
(-0.1846099388 0.05229258845 -4.058257809e-23)
(-0.2001175481 0.01142626188 1.656450088e-23)
(-0.2104473086 -0.03469816658 -8.260161629e-24)
(-0.2137061636 -0.08374361506 3.370057497e-22)
(-0.2078072916 -0.1318489296 0)
(-0.1908103895 -0.1732458049 2.418282776e-22)
(-0.1616215439 -0.2002285008 5.76684391e-24)
(-0.1211565781 -0.2039830616 -5.852844652e-24)
(-0.07384345804 -0.1771880278 1.545921133e-22)
(-0.02971498462 -0.1188487785 -5.427943251e-24)
(-0.002179255994 -0.04004895956 0)
(-0.0002119613937 0.04670593085 0)
(-0.01125022589 0.1105248874 0)
(-0.02815602175 0.1497023782 -5.021108939e-22)
(-0.04874365479 0.170115791 -1.880398297e-23)
(-0.07099862449 0.1765911738 2.037639896e-23)
(-0.09399125226 0.1724227046 -2.013581112e-23)
(-0.1171394261 0.1594638788 -2.315943206e-23)
(-0.1400135701 0.1384652383 -3.028455291e-22)
(-0.1621284674 0.109509202 6.697499164e-23)
(-0.1827916474 0.0724532359 4.511044569e-23)
(-0.2009794784 0.02735827448 -4.575507421e-23)
(-0.215222953 -0.02507126617 0)
(-0.2235518175 -0.08296215216 -7.831946095e-23)
(-0.2234581237 -0.1426997846 0)
(-0.2120619867 -0.1981527312 -3.737735319e-22)
(-0.1867368645 -0.2400461475 5.241708815e-22)
(-0.1464373785 -0.2560465834 0)
(-0.0939405763 -0.2330941511 -1.491542836e-22)
(-0.04021732092 -0.1639428635 1.93501824e-22)
(-0.00320079323 -0.05860404064 -3.409008569e-22)
(-0.0002018654779 0.05296584658 0)
(-0.01067405911 0.124792974 9.180520472e-22)
(-0.02628706952 0.1687098438 -2.44001684e-23)
(-0.04501448752 0.191609893 9.190895854e-22)
(-0.06494993176 0.1992578968 -2.511344118e-23)
(-0.0853707219 0.1955809476 2.837907683e-23)
(-0.1059355742 0.1827661242 -2.812002287e-23)
(-0.1264981654 0.1616438971 -1.660342715e-23)
(-0.1469062861 0.1321701729 -5.258432001e-22)
(-0.1668532312 0.09389839919 -8.903549662e-24)
(-0.1857382606 0.04641478288 9.656944746e-24)
(-0.2024862161 -0.01022290136 3.312133316e-22)
(-0.2154228534 -0.0749784191 -5.818819545e-22)
(-0.2220268167 -0.145007548 0)
(-0.2188067872 -0.2146493495 8.883833717e-22)
(-0.2016267102 -0.2739726996 -4.937836997e-22)
(-0.1668625944 -0.3075515191 -1.571251093e-23)
(-0.1140195473 -0.2953537543 0)
(-0.05288285182 -0.2195598361 -1.887694579e-22)
(-0.004748895891 -0.08376481278 3.358110098e-22)
(-0.0003645838034 0.05901432043 1.550628131e-23)
(-0.01049834514 0.137965978 -8.761956113e-22)
(-0.02441925392 0.185650048 -1.156803137e-21)
(-0.0402751514 0.2101049827 -8.626695402e-22)
(-0.05631741082 0.2182026719 0)
(-0.07216061684 0.2145914551 3.512817076e-23)
(-0.08780602748 0.2018585006 -7.292791851e-23)
(-0.1034717369 0.1809878852 5.866200171e-23)
(-0.1194153411 0.1518951963 3.020420916e-22)
(-0.1358113232 0.1139180423 -1.127879598e-23)
(-0.1526271607 0.06622356501 0)
(-0.1694710829 0.008191413567 -3.60288761e-22)
(-0.1852941028 -0.06014204896 7.513836001e-22)
(-0.1980609547 -0.1372542756 8.829826e-22)
(-0.2043676536 -0.2189036667 -5.2948653e-22)
(-0.1991068185 -0.2959468672 5.161223991e-22)
(-0.1760653467 -0.3513814042 1.07739219e-23)
(-0.1300902875 -0.3583897035 -1.094693733e-23)
(-0.06688738064 -0.2843071055 -8.237360872e-23)
(-0.007083100752 -0.1169875859 0)
(-0.0009099981199 0.0653933117 -1.911080566e-23)
(-0.01167950224 0.1502628769 -1.326714366e-21)
(-0.02389656663 0.2000394745 1.093996673e-21)
(-0.03602527792 0.2243919879 6.733629985e-22)
(-0.0465886609 0.2316300808 6.013424515e-22)
(-0.0557891319 0.227214907 6.642539581e-22)
(-0.06413382994 0.2141595063 -4.457598594e-23)
(-0.07229913183 0.1936390721 -3.460577376e-22)
(-0.08099489759 0.1656000825 2.151699609e-22)
(-0.09089817407 0.1292748472 0)
(-0.1025814695 0.08354045164 0)
(-0.1163886757 0.02721364099 2.654952171e-22)
(-0.1321843055 -0.04060418374 8.195646118e-23)
(-0.1489484736 -0.1199957507 -2.820692423e-22)
(-0.1641484182 -0.2089122306 -5.410291306e-23)
(-0.1728033544 -0.3006804735 1.302175912e-22)
(-0.1670415501 -0.3793127776 -3.399368209e-22)
(-0.1365343978 -0.4136243648 -1.603559624e-23)
(-0.08018360497 -0.353814112 8.226103423e-23)
(-0.01050755895 -0.159404099 -6.033726365e-22)
(-0.002260919442 0.07348394157 0)
(-0.01580779209 0.1626378649 2.145495167e-21)
(-0.02665987304 0.2117692078 0)
(-0.03423820796 0.2333701594 -1.351573404e-21)
(-0.03761366968 0.2377525704 6.185301887e-23)
(-0.03802062657 0.2312347874 -6.191767101e-22)
(-0.03670952937 0.2171749553 -4.755374187e-22)
(-0.03491944044 0.1968854146 8.299559299e-22)
(-0.03381881182 0.1703329193 -1.885288525e-22)
(-0.03452964569 0.1367268124 0)
(-0.03814632748 0.09480614406 0)
(-0.04567956099 0.04305535203 2.411276852e-23)
(-0.05793613346 -0.02012383648 -6.006296827e-22)
(-0.07517185961 -0.09619241584 -4.308922894e-22)
(-0.09647459121 -0.1855419894 4.637409432e-22)
(-0.1183650671 -0.2853434226 -6.487515101e-22)
(-0.1332854388 -0.38382469 9.115514295e-23)
(-0.1265432963 -0.4504211107 2.947526894e-23)
(-0.08899437347 -0.4198390977 5.660989073e-22)
(-0.01526933941 -0.2111639087 6.022356154e-22)
(-0.005181260906 0.08597799589 0)
(-0.02525984544 0.1766198541 1.465686164e-22)
(-0.03484410067 0.2205809634 -4.916460291e-23)
(-0.0364162055 0.2354674274 7.641736549e-22)
(-0.03020647932 0.2343219587 -7.004214466e-22)
(-0.01919210197 0.2241441665 4.745683092e-23)
(-0.005644561998 0.2083407865 -1.018543388e-22)
(0.008538171381 0.1881177802 -3.389241038e-22)
(0.02176641463 0.1633903955 2.062496422e-22)
(0.03259575996 0.133328576 0)
(0.03955374708 0.09664907141 0)
(0.04114117707 0.05175121814 -2.902287969e-22)
(0.03575798732 -0.003243869188 0)
(0.02195742974 -0.07057230258 -5.511790469e-22)
(-0.001286413086 -0.1525633294 -1.490619229e-23)
(-0.03312285124 -0.2505859157 2.559423488e-23)
(-0.06910685855 -0.359925409 2.202475414e-22)
(-0.09228776371 -0.457533929 4.790945911e-24)
(-0.0871847618 -0.4698033934 -5.790006594e-22)
(-0.02103167482 -0.2698909976 0)
(-0.01111650622 0.1085972722 0)
(-0.0424925644 0.1947107913 -8.847406478e-22)
(-0.04796406759 0.2258104888 -5.410570394e-22)
(-0.03920999609 0.2282013024 4.543402751e-22)
(-0.01879854778 0.2182196971 -1.710396031e-24)
(0.007639333286 0.2028101923 -4.560484738e-23)
(0.03665164047 0.1847531285 5.695807016e-22)
(0.06579976311 0.1647066927 -2.766470094e-23)
(0.09324050618 0.1423119359 -2.069449173e-22)
(0.1173591271 0.1166305162 3.141790644e-23)
(0.1365178511 0.08641757284 -3.425516453e-23)
(0.1489409462 0.050184838 -3.690258005e-23)
(0.1525044345 0.006168133272 3.205384286e-22)
(0.1449165507 -0.04795267726 6.119176088e-22)
(0.1234985985 -0.1152979459 -5.100860204e-22)
(0.08632100941 -0.2004138029 -1.615999375e-22)
(0.0319783705 -0.3067762077 1.531277978e-22)
(-0.0236301826 -0.4239792389 7.293770596e-23)
(-0.06492777205 -0.4871561893 1.913292012e-21)
(-0.02510021812 -0.3291504926 2.954991971e-21)
(-0.02004667437 0.1460739284 -4.389922875e-23)
(-0.06416569385 0.2112948363 4.417093836e-23)
(-0.05070754165 0.2177260782 1.00011763e-21)
(-0.01935078093 0.2014613342 -8.259329435e-24)
(0.02412997157 0.1808996927 0)
(0.07152206256 0.1606856729 4.36320738e-23)
(0.1190477849 0.1416434351 -2.273546104e-22)
(0.1644520437 0.1233143594 -9.026673478e-23)
(0.2061996371 0.1048106242 3.680199387e-23)
(0.2429393704 0.08507291662 -1.701427905e-23)
(0.2731974658 0.06296515662 3.429569287e-23)
(0.2952328502 0.0372680619 -6.59204993e-23)
(0.3066790407 0.006540803652 -9.303099888e-23)
(0.3049586035 -0.03087217967 1.516961153e-22)
(0.2863812404 -0.07785833176 0)
(0.2470469446 -0.1399268765 1.505554791e-22)
(0.1810842393 -0.22662854 2.559978447e-22)
(0.09603853805 -0.3443877331 0)
(-0.006700666335 -0.4552191438 -3.675629518e-21)
(-0.01922458145 -0.3777520194 -2.892621068e-21)
(-0.02591914685 0.2276841307 -9.514036817e-22)
(-0.03998266481 0.2238225145 -1.388915554e-22)
(0.03656071817 0.1810577746 -2.335408922e-22)
(0.1090470225 0.1451035302 -1.193638401e-22)
(0.1817123734 0.1172411246 -4.295575149e-23)
(0.248998651 0.09627545177 9.782148079e-23)
(0.3100200482 0.08002201125 -1.408411003e-22)
(0.3646050032 0.06656608561 1.296993863e-22)
(0.4126081264 0.05449103033 -8.61887836e-23)
(0.4536079089 0.04270951161 1.132137845e-25)
(0.4867718157 0.03032465664 1.527577132e-23)
(0.5107309637 0.01653143848 7.996435041e-23)
(0.5236480591 0.0005390857237 -1.810989172e-22)
(0.5231709002 -0.01863123331 -1.617062751e-22)
(0.505225806 -0.04286277408 -4.262659255e-23)
(0.4658669123 -0.07633104814 0)
(0.3952663227 -0.1286085437 -1.846433491e-22)
(0.2916045991 -0.2208466979 8.148710753e-22)
(0.1197439917 -0.3525015873 1.631594276e-21)
(0.02670508817 -0.3775495718 2.172651843e-21)
(0.2142898286 0.1347450971 9.864803564e-22)
(0.277632308 0.09870551844 0)
(0.4316605556 0.05810437479 -2.594203528e-22)
(0.5304754848 0.03846257255 -1.741578129e-22)
(0.6016955675 0.02623388686 0)
(0.6571169647 0.01831884979 -6.008477277e-23)
(0.7015166143 0.01313567918 6.377142576e-23)
(0.7375981447 0.009541946968 -1.79986836e-23)
(0.7669300307 0.006804488407 2.885523562e-23)
(0.7902038769 0.004464972202 2.314697333e-23)
(0.8074493867 0.002221709291 0)
(0.8182571772 -0.000149586382 -2.872735462e-23)
(0.8216464459 -0.002723335651 0)
(0.8162373785 -0.005712282562 2.737915647e-23)
(0.7991324508 -0.009611155943 1.421639695e-23)
(0.7679985535 -0.01500249061 -5.799393474e-23)
(0.7106557942 -0.02502530078 -2.535633378e-22)
(0.6235185383 -0.0420429729 -6.918060458e-22)
(0.4230090884 -0.09182980381 0)
(0.2705674322 -0.1524022399 -2.119479805e-21)
)
;

boundaryField
{
    movingWall
    {
        type            calculated;
        value           uniform (1 0 0);
    }
    fixedWalls
    {
        type            calculated;
        value           uniform (0 0 0);
    }
    frontAndBack
    {
        type            empty;
    }
}


// ************************************************************************* //
