/*--------------------------------*- C++ -*----------------------------------*\
  =========                 |
  \\      /  F ield         | OpenFOAM: The Open Source CFD Toolbox
   \\    /   O peration     | Website:  https://openfoam.org
    \\  /    A nd           | Version:  13
     \\/     M anipulation  |
\*---------------------------------------------------------------------------*/
FoamFile
{
    format      ascii;
    class       vectorField;
    location    "21";
    object      U_all;
}
// * * * * * * * * * * * * * * * * * * * * * * * * * * * * * * * * * * * * * //


400
(
(0.0001573591592 -0.0001605574846 0)
(-0.0001684977405 4.865578277e-05 0)
(-0.001497034281 0.0002730269626 0)
(-0.003620249264 0.0004164195261 0)
(-0.006213832587 0.0004911248845 0)
(-0.008993420724 0.0005168675798 0)
(-0.01172400239 0.0005033336433 0)
(-0.01418930222 0.0004505327566 0)
(-0.01617012754 0.0003533299739 0)
(-0.01744355728 0.0002077006365 0)
(-0.01780566602 1.716246128e-05 0)
(-0.01711440427 -0.0002022491938 0)
(-0.01534253541 -0.0004197451231 0)
(-0.01262459965 -0.0005930372718 0)
(-0.009278108263 -0.0006773985832 0)
(-0.005780076079 -0.0006394741287 0)
(-0.002689553376 -0.0004710423716 0)
(-0.0005185202849 -0.0001978042703 0)
(0.0004420546485 0.0001058287871 0)
(0.0002791953304 0.0002728416122 0)
(-6.180976028e-05 0.0001663299352 0)
(-0.001962862272 0.001841654213 0)
(-0.006043299537 0.00354649843 0)
(-0.01178907114 0.004719774091 0)
(-0.01850039851 0.005330706077 0)
(-0.0255480886 0.00545143688 0)
(-0.03236820421 0.005133652817 0)
(-0.03842419952 0.004389153863 0)
(-0.04318561752 0.003213195922 0)
(-0.04614201779 0.001624181107 0)
(-0.04685744617 -0.0002964448674 0)
(-0.04505703737 -0.002376924456 0)
(-0.04072660033 -0.004351563445 0)
(-0.03419591893 -0.00589065346 0)
(-0.02617098404 -0.006666895366 0)
(-0.01768251334 -0.006449960701 0)
(-0.009929428101 -0.00520574044 0)
(-0.004021940363 -0.003172128038 0)
(-0.000655686922 -0.0009181669 0)
(0.0001857168361 0.0004891688708 0)
(-0.0003446512842 0.001647918857 0)
(-0.004170768373 0.006076703492 0)
(-0.01104590748 0.009999355862 0)
(-0.02009362563 0.01264561831 0)
(-0.03031121164 0.01397116389 0)
(-0.04084721055 0.0140973444 0)
(-0.05092293659 0.0131162557 0)
(-0.05978673795 0.01105881227 0)
(-0.06670205185 0.007942681158 0)
(-0.07097560743 0.003852128615 0)
(-0.07202859048 -0.0009839835532 0)
(-0.06950125684 -0.006141982287 0)
(-0.06337081714 -0.01100273931 0)
(-0.05405388709 -0.0148172234 0)
(-0.04245685861 -0.01684668871 0)
(-0.02993217718 -0.01656492452 0)
(-0.0181026071 -0.01387929815 0)
(-0.008547732875 -0.009303510887 0)
(-0.002415389069 -0.0040417285 0)
(4.558751112e-06 -0.0001163729734 0)
(-0.0005994771712 0.004307707345 0)
(-0.006288767371 0.01276010553 0)
(-0.01584057173 0.01950964773 0)
(-0.02795213377 0.0238958049 0)
(-0.04131557756 0.02597579286 0)
(-0.05491223429 0.02595674962 0)
(-0.06782818228 0.02398092277 0)
(-0.0791799885 0.02010380914 0)
(-0.08809965486 0.01437643789 0)
(-0.09376471571 0.006969030317 0)
(-0.09547161203 -0.001711430195 0)
(-0.09274481059 -0.01094560851 0)
(-0.08546754125 -0.01969758999 0)
(-0.07401297827 -0.02670845551 0)
(-0.05934165869 -0.03070707494 0)
(-0.04301173879 -0.03073409016 0)
(-0.02703523704 -0.02652379432 0)
(-0.01354120131 -0.01882480385 0)
(-0.004314371433 -0.00952514571 0)
(-0.0001514457383 -0.001647241248 0)
(-0.0008190817504 0.008039136795 0)
(-0.008193871806 0.0216936434 0)
(-0.02019676618 0.03179635808 0)
(-0.03510580077 0.03809913196 0)
(-0.05132390115 0.04091702276 0)
(-0.06770470321 0.04061170359 0)
(-0.08325800855 0.03739863013 0)
(-0.09703256435 0.03136034997 0)
(-0.108082362 0.02257434531 0)
(-0.1154830791 0.01128392526 0)
(-0.1183933508 -0.001941875014 0)
(-0.1161585935 -0.01609854157 0)
(-0.1084544083 -0.02971974721 0)
(-0.09546111026 -0.04097250262 0)
(-0.078041768 -0.04791605501 0)
(-0.05785959076 -0.04894969434 0)
(-0.03732816197 -0.04340448361 0)
(-0.01928854381 -0.03210640761 0)
(-0.006434379554 -0.01762857269 0)
(-0.0002947941215 -0.004149547556 0)
(-0.00100284951 0.01270743955 0)
(-0.009835264054 0.03262661184 0)
(-0.02398355257 0.04657135379 0)
(-0.04136050676 0.05496006375 0)
(-0.06012121955 0.05852389186 0)
(-0.07903383537 0.05786272062 0)
(-0.09708362211 0.05329744081 0)
(-0.1133064101 0.0449365608 0)
(-0.1267238353 0.03285855468 0)
(-0.1363318468 0.01733360409 0)
(-0.1411360631 -0.0009685753289 0)
(-0.1402393764 -0.02081928177 0)
(-0.1329930413 -0.04035338975 0)
(-0.1192203839 -0.05712246702 0)
(-0.09950021072 -0.06835737681 0)
(-0.07544541107 -0.07152134658 0)
(-0.0498332871 -0.06516284067 0)
(-0.02638196619 -0.04987259415 0)
(-0.009057038237 -0.02886108957 0)
(-0.0004663753178 -0.007766875711 0)
(-0.001146289756 0.01816161434 0)
(-0.01116288395 0.04525302034 0)
(-0.02707124746 0.06347833699 0)
(-0.04649604319 0.07412899689 0)
(-0.06740041455 0.0784967686 0)
(-0.08851278161 0.07750622498 0)
(-0.1088438699 0.071620646 0)
(-0.1274705873 0.06097109115 0)
(-0.14343264 0.04559776045 0)
(-0.1556822177 0.02572465746 0)
(-0.1630804558 0.002021287703 0)
(-0.1644549914 -0.02417149745 0)
(-0.1587427707 -0.05067749602 0)
(-0.1452494377 -0.07444150742 0)
(-0.1240402523 -0.09172319327 0)
(-0.09641997277 -0.09869410993 0)
(-0.06535122067 -0.09256843959 0)
(-0.03550084461 -0.07314328958 0)
(-0.01254325146 -0.04406159494 0)
(-0.000715473353 -0.01282005263 0)
(-0.001242782754 0.02422387811 0)
(-0.01212048154 0.05919893325 0)
(-0.02931751273 0.08206527544 0)
(-0.05025359554 0.0951428112 0)
(-0.07275816234 0.1004097418 0)
(-0.09556448249 0.09920045206 0)
(-0.1177572916 0.09216236945 0)
(-0.1385114724 0.07944859416 0)
(-0.1569479612 0.06101796584 0)
(-0.1720387475 0.0369614372 0)
(-0.1825548462 0.007819798627 0)
(-0.1870758228 -0.02511250324 0)
(-0.1840970719 -0.05950655187 0)
(-0.1722876934 -0.09180018159 0)
(-0.150953225 -0.1172240691 0)
(-0.1207192445 -0.1303159631 0)
(-0.08433787079 -0.126250191 0)
(-0.04726434007 -0.1031137705 0)
(-0.01729475355 -0.06440415352 0)
(-0.001102953259 -0.01983319203 0)
(-0.001287950136 0.03068764014 0)
(-0.0126644311 0.0740208648 0)
(-0.0305980393 0.101772814 0)
(-0.05237845975 0.1173895749 0)
(-0.07575199855 0.1236429618 0)
(-0.09949552424 0.1223620068 0)
(-0.1228133076 0.1144286026 0)
(-0.1450379408 0.100028811 0)
(-0.1654491822 0.07900748203 0)
(-0.1831352415 0.0512409589 0)
(-0.1968877718 0.01700544702 0)
(-0.20514753 -0.02264165284 0)
(-0.2060409542 -0.06545185838 0)
(-0.19757629 -0.1075846801 0)
(-0.1781000814 -0.1433550475 0)
(-0.1471215208 -0.1654670236 0)
(-0.1065427042 -0.1663023824 0)
(-0.06205380988 -0.1408991143 0)
(-0.02373085747 -0.09133594136 0)
(-0.001709717887 -0.0295522129 0)
(-0.00128654444 0.03733226306 0)
(-0.01279962306 0.08922652688 0)
(-0.03086920898 0.1219419706 0)
(-0.05270744713 0.1400917298 0)
(-0.07601418597 0.1473360509 0)
(-0.09964273943 0.1460873615 0)
(-0.1229596194 0.1375253169 0)
(-0.1455154476 0.1218997607 0)
(-0.1668355306 0.09893443178 0)
(-0.1862463756 0.06823711569 0)
(-0.2027221198 0.02970430556 0)
(-0.2147583016 -0.01603907575 0)
(-0.2203067249 -0.06711521652 0)
(-0.2168394852 -0.1197754197 0)
(-0.2016843674 -0.1677774696 0)
(-0.1728468583 -0.2020989695 0)
(-0.130571485 -0.2117582649 0)
(-0.07973722869 -0.1870828056 0)
(-0.03223855548 -0.1264100645 0)
(-0.002647914873 -0.04296112637 0)
(-0.001262340511 0.04396257224 0)
(-0.01263055636 0.1043301741 0)
(-0.0302554021 0.1418523908 0)
(-0.05128859885 0.1623180836 0)
(-0.0734067711 0.1703755368 0)
(-0.09557587311 0.1691190104 0)
(-0.11737079 0.1601031818 0)
(-0.1386195853 0.1436955037 0)
(-0.1591780616 0.1195266573 0)
(-0.178738138 0.08692848294 0)
(-0.1966419853 0.04535340291 0)
(-0.2116918202 -0.005164993572 0)
(-0.2219701338 -0.06342252082 0)
(-0.2247156309 -0.1262383183 0)
(-0.2164120451 -0.1874400212 0)
(-0.1933925386 -0.2368411912 0)
(-0.1534736442 -0.2600384074 0)
(-0.09926946229 -0.2410481157 0)
(-0.0430467466 -0.1709398061 0)
(-0.004071511109 -0.06128237761 0)
(-0.00127234564 0.05048283769 0)
(-0.01242844062 0.11895199 0)
(-0.02915261123 0.1607965876 0)
(-0.04851191247 0.183029106 0)
(-0.06818272951 0.1914248486 0)
(-0.08730703665 0.1898731153 0)
(-0.1057335471 0.1803872194 0)
(-0.1236287179 0.1635205195 0)
(-0.1412491843 0.1388705458 0)
(-0.1587546985 0.1055387843 0)
(-0.1760181952 0.06254142164 0)
(-0.1924026841 0.009244258246 0)
(-0.206479841 -0.05405674984 0)
(-0.2157125843 -0.1252465145 0)
(-0.2162056833 -0.1990480205 0)
(-0.2028419139 -0.265181422 0)
(-0.1705784516 -0.3066083376 0)
(-0.1182440234 -0.3001782007 0)
(-0.05596992509 -0.2253788603 0)
(-0.0061807154 -0.08592450542 0)
(-0.001429580804 0.05702010914 0)
(-0.01272010342 0.1329655005 0)
(-0.02833760534 0.178180879 0)
(-0.04521603768 0.2011417034 0)
(-0.06109177028 0.2089856632 0)
(-0.07541668806 0.2065235763 0)
(-0.08842394585 0.1962949392 0)
(-0.1006883045 0.1790966996 0)
(-0.1129134806 0.1545632451 0)
(-0.125777397 0.1216508557 0)
(-0.1397726893 0.0790229573 0)
(-0.154995447 0.02541781548 0)
(-0.1708297779 -0.03986445087 0)
(-0.1854882048 -0.1161447993 0)
(-0.1954113333 -0.1998864243 0)
(-0.1947506261 -0.2821807083 0)
(-0.1758210988 -0.3451633999 0)
(-0.1326064459 -0.3592066797 0)
(-0.06999365445 -0.2883769992 0)
(-0.009209024536 -0.1182976554 0)
(-0.001944378008 0.0641205523 0)
(-0.01441070762 0.1466870071 0)
(-0.02906063193 0.1936181337 0)
(-0.04270414873 0.2155696501 0)
(-0.05332117293 0.2214478075 0)
(-0.06094429622 0.2171008085 0)
(-0.06637578696 0.2056007875 0)
(-0.07068510686 0.1879934374 0)
(-0.07504139488 0.1639913762 0)
(-0.08062420294 0.1324967915 0)
(-0.08853077592 0.09195527845 0)
(-0.09962732428 0.04063503582 0)
(-0.114283459 -0.02304614095 0)
(-0.1318944816 -0.09992694107 0)
(-0.1500570177 -0.1888053923 0)
(-0.1633672196 -0.2836819345 0)
(-0.1625696074 -0.368567319 0)
(-0.1367438967 -0.4101698562 0)
(-0.0827439943 -0.3556575382 0)
(-0.01334100556 -0.159343737 0)
(-0.003183223752 0.07304097693 0)
(-0.0189298601 0.1610724085 0)
(-0.03302786131 0.2069268621 0)
(-0.04247880098 0.2251460263 0)
(-0.04600432733 0.2270392434 0)
(-0.04471910258 0.2195154866 0)
(-0.04026885305 0.2060475666 0)
(-0.03431604973 0.1878316059 0)
(-0.02848330309 0.164625231 0)
(-0.02437303569 0.1353345913 0)
(-0.02357602665 0.09832672876 0)
(-0.0276195441 0.05163106555 0)
(-0.03782173429 -0.006906939144 0)
(-0.0549404059 -0.07935677164 0)
(-0.07837872948 -0.1669149529 0)
(-0.1045510409 -0.2676046172 0)
(-0.1245469994 -0.3703857269 0)
(-0.1238828419 -0.4432883985 0)
(-0.08993278567 -0.4192580596 0)
(-0.01839498673 -0.2087171843 0)
(-0.005653998248 0.08623713938 0)
(-0.02821221404 0.1778013045 0)
(-0.04183752708 0.2177619859 0)
(-0.0450042638 0.2281578814 0)
(-0.03844735438 0.223451675 0)
(-0.02522044722 0.2113181435 0)
(-0.008137549253 0.1952410874 0)
(0.01048164115 0.1762940732 0)
(0.02862993183 0.1541700191 0)
(0.04442629302 0.1277620041 0)
(0.0559648441 0.09546546696 0)
(0.0612705396 0.05530688887 0)
(0.05829770293 0.004966748085 0)
(0.04507490004 -0.05826164656 0)
(0.02020688645 -0.137371768 0)
(-0.01560375006 -0.2345559831 0)
(-0.05618087164 -0.3462792347 0)
(-0.08637472519 -0.4484574978 0)
(-0.0848737554 -0.4678511545 0)
(-0.02316274727 -0.2643352578 0)
(-0.009906777816 0.1089125635 0)
(-0.0437455835 0.198960682 0)
(-0.05408945467 0.2241342922 0)
(-0.04500821992 0.2208644375 0)
(-0.02246795916 0.2067271303 0)
(0.007410935393 0.1889656635 0)
(0.04056728742 0.1702233553 0)
(0.07423617052 0.1509795366 0)
(0.1062838986 0.1306345522 0)
(0.1348061968 0.1080111264 0)
(0.157863057 0.08160344926 0)
(0.1733179975 0.04962974955 0)
(0.1787265832 0.009983495844 0)
(0.1713043567 -0.03999530059 0)
(0.1480471121 -0.103983912 0)
(0.1065711358 -0.1871861889 0)
(0.04825005089 -0.2943965492 0)
(-0.0154303597 -0.4161962203 0)
(-0.05827030719 -0.4872318386 0)
(-0.02483482833 -0.3224907742 0)
(-0.01771147706 0.1521006146 0)
(-0.06150568745 0.2237512957 0)
(-0.05312945684 0.2171396086 0)
(-0.01617120261 0.1937836466 0)
(0.0325130746 0.1694812368 0)
(0.08461132645 0.1473519804 0)
(0.1362710957 0.1277807213 0)
(0.1853048798 0.1101295685 0)
(0.2301811835 0.09329211528 0)
(0.2695195683 0.0760156313 0)
(0.3017734483 0.05698432566 0)
(0.3250347983 0.03477501769 0)
(0.3368659942 0.007791721115 0)
(0.3341954776 -0.02600869033 0)
(0.3131387792 -0.06978555866 0)
(0.2690117202 -0.1294258269 0)
(0.1975425567 -0.2157502216 0)
(0.1010824949 -0.3378247906 0)
(0.003203425598 -0.4563069083 0)
(-0.01626256841 -0.3685846918 0)
(-0.02406404445 0.2086299883 0)
(-0.03764585106 0.230731736 0)
(0.03741408823 0.1765850039 0)
(0.124778458 0.1365028991 0)
(0.2048663893 0.1083970233 0)
(0.2762246738 0.08739941775 0)
(0.33963339 0.07131786889 0)
(0.3955050656 0.05853502506 0)
(0.4439951182 0.04762830027 0)
(0.484885019 0.03744132335 0)
(0.5176053135 0.02696494437 0)
(0.5408966669 0.01529078354 0)
(0.5527856365 0.001496145171 0)
(0.5505286562 -0.01551852694 0)
(0.5302083466 -0.03760545903 0)
(0.4862412809 -0.06867648908 0)
(0.4101419263 -0.1188778414 0)
(0.290153904 -0.2093108276 0)
(0.1327156448 -0.338303766 0)
(0.03840780702 -0.3402069199 0)
(0.2419782073 0.1092442547 0)
(0.3137888314 0.09727773873 0)
(0.4447997762 0.05703979199 0)
(0.550026976 0.03509399336 0)
(0.6241452293 0.02365930431 0)
(0.679216828 0.01659513667 0)
(0.72258564 0.01186818324 0)
(0.7574625237 0.008617467773 0)
(0.7854707927 0.006238810216 0)
(0.8074446276 0.004286473717 0)
(0.8235689651 0.00244184214 0)
(0.8334429916 0.0004859205157 0)
(0.8361550608 -0.001764351924 0)
(0.8302253364 -0.004461055392 0)
(0.8132670526 -0.007932019452 0)
(0.7813053447 -0.01286198235 0)
(0.7259588468 -0.02130281819 0)
(0.630071675 -0.03821503629 0)
(0.4593183841 -0.08576454798 0)
(0.3048700668 -0.1257379839 0)
)


// ************************************************************************* //
