/*--------------------------------*- C++ -*----------------------------------*\
  =========                 |
  \\      /  F ield         | OpenFOAM: The Open Source CFD Toolbox
   \\    /   O peration     | Website:  https://openfoam.org
    \\  /    A nd           | Version:  13
     \\/     M anipulation  |
\*---------------------------------------------------------------------------*/
FoamFile
{
    format      ascii;
    class       vectorField;
    location    "21";
    object      U_all;
}
// * * * * * * * * * * * * * * * * * * * * * * * * * * * * * * * * * * * * * //


400
(
(1.083448802e-05 -3.787045234e-05 0)
(-0.0006661622602 0.0004129656023 -1.541709403e-23)
(-0.002184949374 0.0009201794335 0)
(-0.004046882966 0.001312446124 0)
(-0.005970383262 0.001534663731 6.82585485e-25)
(-0.00776082283 0.001569435963 4.15279059e-24)
(-0.009282216769 0.001423196566 -7.309816892e-24)
(-0.01043338578 0.001119446152 7.597152234e-24)
(-0.01113419489 0.0006959251779 -2.100789162e-25)
(-0.0113245988 0.0002030489622 -4.002969161e-24)
(-0.01096953292 -0.0003001432069 5.812853873e-24)
(-0.010070505 -0.0007473403206 -5.937289099e-23)
(-0.008678573053 -0.001075348447 -6.561042224e-23)
(-0.006902102553 -0.001232846558 -7.793324909e-23)
(-0.004910514368 -0.001192507514 4.579559117e-24)
(-0.002927430717 -0.0009618908996 -4.144498415e-24)
(-0.001205759603 -0.0005912908914 -2.003401987e-22)
(-1.956880505e-05 -0.0001700415926 0)
(0.000517795476 0.0001718924944 1.531183552e-25)
(0.0002226594981 0.0003058516769 -2.835456622e-24)
(-0.0002633625577 0.0008287092583 1.389623373e-25)
(-0.002702639981 0.003382920345 1.551347172e-23)
(-0.006905337734 0.005602901504 1.540457805e-25)
(-0.01194886179 0.007006184805 -8.460257504e-25)
(-0.01713005932 0.007551619885 1.156825267e-24)
(-0.02196901621 0.007292183704 1.300576999e-23)
(-0.02610337524 0.006320250931 1.45162566e-24)
(-0.02925760946 0.004753097745 -7.347196374e-24)
(-0.0312184893 0.0027367075 1.018665371e-23)
(-0.03183402543 0.0004526291507 4.519602199e-24)
(-0.03102032579 -0.001883289837 -6.328940501e-24)
(-0.02878695181 -0.00402169653 2.958985119e-24)
(-0.02526650696 -0.005706758314 3.899700795e-23)
(-0.0207285323 -0.006705803729 -1.957850187e-24)
(-0.01558762623 -0.006852779029 3.760958233e-24)
(-0.01038433639 -0.006096556103 -9.764862883e-23)
(-0.005730318888 -0.004545844555 9.662265586e-23)
(-0.00223380077 -0.002507608375 -4.00414298e-25)
(-0.0001821754529 -0.0005028969967 4.105128119e-25)
(8.337608129e-05 0.0006095084056 0)
(-0.0004186951642 0.002934258367 -2.916170329e-25)
(-0.004646429775 0.008801383287 1.71013873e-23)
(-0.01136836523 0.01323638267 -8.195291903e-24)
(-0.01932119881 0.01578724426 -2.058963853e-25)
(-0.02746555584 0.01652509989 2.022717141e-25)
(-0.03510704844 0.01563998952 8.722027081e-27)
(-0.04170101439 0.01335649097 -1.282083691e-24)
(-0.04682220585 0.009917568804 -4.591961981e-25)
(-0.05013599441 0.00560170975 -1.066652813e-23)
(-0.05139871049 0.0007452170511 0)
(-0.05046527411 -0.004239624368 0)
(-0.04732595745 -0.008883954408 2.675346007e-23)
(-0.04215013942 -0.01267788291 2.817383598e-23)
(-0.03530742792 -0.01513202301 -1.649407577e-24)
(-0.0273852155 -0.0158582576 4.85740996e-23)
(-0.01916728475 -0.01467056273 9.442461195e-23)
(-0.01155967189 -0.01169198928 4.001789254e-23)
(-0.005465131025 -0.007450332403 4.228821305e-25)
(-0.001451214834 -0.002936523223 1.028144725e-25)
(-9.072815198e-05 0.00022526754 0)
(-0.0005022786147 0.006043508304 -4.255004677e-23)
(-0.006400598436 0.01636561394 -1.700339637e-23)
(-0.01552989638 0.02355192551 8.122135028e-24)
(-0.02627058942 0.02743313792 0)
(-0.03727560848 0.0283125563 0)
(-0.04767558157 0.02658021643 0)
(-0.05677952986 0.02262538667 -4.68049583e-26)
(-0.06403521179 0.01683248836 -2.0967923e-24)
(-0.06899151649 0.009621080455 0)
(-0.07128922099 0.001492497248 1.646428938e-24)
(-0.07069055787 -0.006932752827 2.809830086e-25)
(-0.06711421285 -0.01492457116 -2.817697554e-25)
(-0.06068526287 -0.02166045008 0)
(-0.05179648029 -0.02630881251 4.144492719e-23)
(-0.04114178971 -0.02815390942 -4.692799892e-23)
(-0.02971432905 -0.02676816446 -2.775332341e-23)
(-0.0187341357 -0.02221156899 -3.987368845e-23)
(-0.009486708027 -0.01521750352 7.793512414e-25)
(-0.002976587153 -0.007298151018 9.758140628e-23)
(-0.0002318430789 -0.0008667579045 0)
(-0.0005314133149 0.01009180396 4.275707543e-23)
(-0.007980929821 0.02594388067 4.771675307e-25)
(-0.01939054864 0.0364172934 -4.662691939e-25)
(-0.0328133598 0.04184229617 0)
(-0.04663239352 0.04288217335 7.763601172e-25)
(-0.05983423294 0.04018960958 -7.655956146e-25)
(-0.07161200248 0.03433884397 3.66448802e-23)
(-0.08130463696 0.02585132381 1.839838833e-23)
(-0.08834214165 0.01527129804 6.213120076e-24)
(-0.09223083913 0.003248138087 -1.648347052e-24)
(-0.09258092019 -0.009402421427 0)
(-0.08915453105 -0.02166654447 4.387531547e-25)
(-0.08194137042 -0.03235725702 1.015246431e-23)
(-0.07125359262 -0.04020143348 -4.36126978e-23)
(-0.0578084015 -0.04400972413 1.940745422e-24)
(-0.04277753828 -0.04293905846 4.244358998e-23)
(-0.0277494009 -0.03682668292 -3.885780888e-25)
(-0.01454808639 -0.02652334073 0)
(-0.004858672279 -0.01408334669 5.434366493e-23)
(-0.0003640620497 -0.002847249654 -2.561360187e-22)
(-0.0005270425247 0.01499446029 9.831614566e-23)
(-0.009374985253 0.03737829926 -4.900788017e-25)
(-0.02287481364 0.05168608042 0)
(-0.03881881848 0.05892402956 0)
(-0.05537045544 0.06023843663 -8.724417223e-23)
(-0.07140864578 0.05660389426 -8.490545081e-23)
(-0.08604316147 0.04879004025 -4.058946658e-23)
(-0.0985251347 0.03743249413 -1.500023939e-23)
(-0.1081674638 0.02315733315 -5.346049618e-24)
(-0.1143171031 0.006712050223 -8.158504066e-24)
(-0.1163779715 -0.01092597749 6.582812144e-24)
(-0.1138687771 -0.02847861863 8.791835205e-24)
(-0.1065262972 -0.04435676598 -1.891071496e-23)
(-0.09444893781 -0.0567380945 4.459177852e-24)
(-0.07825329645 -0.06376772309 0)
(-0.05921776078 -0.06392125336 -1.587429153e-23)
(-0.03933258633 -0.0565274252 -1.95061954e-26)
(-0.02113807525 -0.04235120757 0)
(-0.007317392288 -0.0239792947 -1.517170463e-22)
(-0.0005214822556 -0.005925304291 6.04850516e-22)
(-0.0004989543724 0.02063924186 -9.76465436e-23)
(-0.01052658972 0.05043871619 2.830465938e-22)
(-0.0258225219 0.06910421327 1.526048884e-22)
(-0.04400962361 0.07846976165 3.616721142e-24)
(-0.06309099979 0.08027271031 -7.316860666e-23)
(-0.08188348568 0.07586120693 9.034405177e-23)
(-0.09945361706 0.0662020334 -3.586935067e-24)
(-0.1149961384 0.0520074415 -1.727098493e-24)
(-0.1277236972 0.03391998915 2.520978869e-24)
(-0.1368184099 0.01270475648 7.367237983e-24)
(-0.1414425667 -0.01057968926 -6.483510976e-24)
(-0.1407976635 -0.03444712914 -9.749739344e-24)
(-0.1342496932 -0.05691072752 -3.260639436e-23)
(-0.1215232227 -0.07551376691 -3.636546648e-23)
(-0.1029492901 -0.0875225829 5.594956238e-25)
(-0.07975005257 -0.0903734132 0)
(-0.05425765728 -0.08242970921 0)
(-0.02986657145 -0.06396666585 -2.90022291e-24)
(-0.010661021 -0.03798249701 2.964542584e-24)
(-0.0007349182688 -0.0104998366 1.027547527e-22)
(-0.0004478638449 0.02686442149 0)
(-0.01134666153 0.06478839019 2.001424025e-22)
(-0.02800964062 0.08827078676 8.959751188e-23)
(-0.04798782938 0.1000959416 0)
(-0.06919090492 0.1026811134 1.568890535e-22)
(-0.09042463836 0.09779265815 0)
(-0.110760737 0.08659304088 -1.427497354e-22)
(-0.1293843898 0.06982778396 6.510699007e-24)
(-0.1454504693 0.04807747568 0)
(-0.1580076441 0.02201970857 0)
(-0.1659858342 -0.007325600491 -1.372820543e-24)
(-0.1682405124 -0.03837357764 -9.300703032e-25)
(-0.1636815158 -0.06882007958 1.489867618e-22)
(-0.151498442 -0.09555972894 -4.703022091e-23)
(-0.131494349 -0.1148053869 -2.554748941e-24)
(-0.104544545 -0.122546653 1.528806928e-24)
(-0.07308294883 -0.1155313079 -1.552922787e-24)
(-0.0413441595 -0.0928160366 0)
(-0.01524998736 -0.05739920011 3.200391952e-24)
(-0.001044093574 -0.01714499473 -1.012007776e-21)
(-0.0003745070517 0.03345366141 0)
(-0.01174816659 0.07996708024 -1.127589979e-22)
(-0.02920216517 0.1086099367 -6.18870823e-22)
(-0.0503089156 0.1231918298 -3.75382802e-22)
(-0.07295096693 0.1268793445 0)
(-0.09597402354 0.1218991127 4.117521991e-22)
(-0.1185089359 0.1096142152 1.260137794e-22)
(-0.1397940545 0.09076881755 -5.57831966e-24)
(-0.1590000894 0.0658079123 5.550709984e-24)
(-0.1751232356 0.03521051861 0)
(-0.1869329501 -0.0001876464556 2.910297529e-23)
(-0.1929946177 -0.03888175368 4.691750358e-24)
(-0.1917593243 -0.07841748286 -1.075603442e-22)
(-0.1817673596 -0.1151609505 7.992906616e-23)
(-0.1620392428 -0.1442320093 -2.417120023e-22)
(-0.1326914728 -0.1598268771 0)
(-0.09576798781 -0.1562859943 0)
(-0.05600970677 -0.1302783843 0)
(-0.0214758918 -0.08379945171 0)
(-0.001500130147 -0.02665167364 5.567459343e-22)
(-0.0002875322075 0.0401505697 0)
(-0.01169266021 0.09541203589 -3.491728504e-22)
(-0.02924157339 0.1293755592 8.929720013e-22)
(-0.05060423099 0.1468954754 3.615750132e-22)
(-0.07369303026 0.1519417761 0)
(-0.09744135947 0.147247003 -3.86074504e-22)
(-0.1210948942 0.1343967262 -3.172946091e-23)
(-0.1440189719 0.1141244217 3.331617923e-22)
(-0.1654999216 0.08669327835 1.768658922e-22)
(-0.1846100026 0.05229258277 -4.058262012e-23)
(-0.2001176113 0.01142622207 1.656448342e-23)
(-0.2104473707 -0.03469823647 -8.260182359e-24)
(-0.2137062253 -0.08374370957 3.370063629e-22)
(-0.2078073525 -0.1318490429 0)
(-0.1908104476 -0.1732459308 2.418287775e-22)
(-0.1616215956 -0.2002286313 5.766851535e-24)
(-0.1211566192 -0.2039831855 -5.85285236e-24)
(-0.07384348486 -0.1771881303 1.54592478e-22)
(-0.02971499652 -0.1188488448 -5.427958754e-24)
(-0.002179257168 -0.04004898122 0)
(-0.0002119603461 0.04670597523 0)
(-0.01125022446 0.1105249922 0)
(-0.02815602212 0.1497025179 -5.021116233e-22)
(-0.04874366024 0.170115944 -1.880401124e-23)
(-0.07099863509 0.176591321 2.037639594e-23)
(-0.09399126609 0.1724228311 -2.013580817e-23)
(-0.1171394419 0.1594639755 -2.315946725e-23)
(-0.1400135877 0.1384653015 -3.028462731e-22)
(-0.1621284865 0.1095092311 6.697512292e-23)
(-0.1827916668 0.07245323116 4.511049052e-23)
(-0.2009794967 0.02735823706 -4.57550966e-23)
(-0.2152229701 -0.02507133337 0)
(-0.2235518351 -0.08296224427 -7.831989459e-23)
(-0.2234581443 -0.1426998961 0)
(-0.2120620117 -0.1981528564 -3.73774216e-22)
(-0.186736893 -0.2400462799 5.241722139e-22)
(-0.1464374065 -0.2560467137 0)
(-0.09394059813 -0.2330942649 -1.491546328e-22)
(-0.04021733211 -0.1639429425 1.935023165e-22)
(-0.003200794351 -0.05860406908 -3.409014383e-22)
(-0.0002018646072 0.05296588947 0)
(-0.01067405323 0.1247930766 9.180519544e-22)
(-0.02628705736 0.1687099806 -2.44001669e-23)
(-0.04501447233 0.1916100431 9.190905026e-22)
(-0.06494991587 0.1992580426 -2.511348461e-23)
(-0.08537070456 0.1955810739 2.837907694e-23)
(-0.1059355532 0.1827662197 -2.812002302e-23)
(-0.1264981398 0.1616439566 -1.660344362e-23)
(-0.1469062566 0.1321701965 -5.258438695e-22)
(-0.1668531994 0.09389839017 -8.903566077e-24)
(-0.1857382278 0.04641474522 9.656957885e-24)
(-0.2024861832 -0.0102229638 3.312137461e-22)
(-0.2154228226 -0.0749785028 -5.818823848e-22)
(-0.2220267914 -0.145007649 0)
(-0.2188067712 -0.2146494641 8.883843748e-22)
(-0.2016267057 -0.2739728233 -4.937849478e-22)
(-0.1668626001 -0.3075516453 -1.571254941e-23)
(-0.1140195582 -0.2953538707 0)
(-0.05288286037 -0.219559923 -1.887699418e-22)
(-0.004748897122 -0.08376484688 3.358115821e-22)
(-0.0003645828589 0.05901435819 1.550629258e-23)
(-0.01049833536 0.1379660732 -8.761955391e-22)
(-0.02441923117 0.1856501763 -1.156802808e-21)
(-0.04027511629 0.2101051228 -8.626704179e-22)
(-0.05631736683 0.2182028071 0)
(-0.07216056647 0.2145915726 3.512821631e-23)
(-0.08780597064 0.20185859 -7.292797673e-23)
(-0.1034716722 0.1809879396 5.866201475e-23)
(-0.1194152684 0.1518952143 3.020423224e-22)
(-0.1358112445 0.1139180275 -1.127880085e-23)
(-0.1526270794 0.06622352388 0)
(-0.1694710027 0.008191352964 -3.60289203e-22)
(-0.1852940272 -0.06014212401 7.513842708e-22)
(-0.1980608872 -0.1372543617 8.829832691e-22)
(-0.2043675984 -0.2189037623 -5.294868949e-22)
(-0.1991067796 -0.2959469715 5.161226937e-22)
(-0.1760653259 -0.3513815147 1.077394636e-23)
(-0.1300902822 -0.3583898117 -1.094696219e-23)
(-0.0668873835 -0.284307193 -8.23730596e-23)
(-0.007083101727 -0.1169876238 0)
(-0.0009099962105 0.0653933407 -1.911082851e-23)
(-0.01167948784 0.1502629574 -1.326716115e-21)
(-0.02389653552 0.2000395884 1.093996356e-21)
(-0.03602522768 0.2243921137 6.733628515e-22)
(-0.04658859318 0.2316302006 6.013422433e-22)
(-0.05578905074 0.2272150086 6.64254243e-22)
(-0.06413373934 0.2141595822 -4.457605172e-23)
(-0.07229903359 0.1936391174 -3.460581642e-22)
(-0.08099479225 0.1656000955 2.151701385e-22)
(-0.09089806287 0.1292748298 0)
(-0.1025813552 0.08354040945 0)
(-0.1163885623 0.02721358193 2.654953099e-22)
(-0.1321841975 -0.04060425209 8.195629935e-23)
(-0.1489483753 -0.1199958233 -2.820695437e-22)
(-0.164148334 -0.208912306 -5.410295376e-23)
(-0.1728032886 -0.300680553 1.302176163e-22)
(-0.1670415058 -0.3793128633 -3.399370442e-22)
(-0.1365343758 -0.4136244536 -1.603541394e-23)
(-0.0801836002 -0.3538141909 8.226048587e-23)
(-0.01050755919 -0.1594041373 -6.033724044e-22)
(-0.002260916562 0.07348396061 0)
(-0.01580777281 0.1626379241 2.145497381e-21)
(-0.02665983394 0.2117692988 0)
(-0.03423814713 0.2333702657 -1.351573883e-21)
(-0.03761358701 0.2377526735 6.18532784e-23)
(-0.03802052455 0.231234873 -6.191769888e-22)
(-0.0367094135 0.2171750162 -4.75537506e-22)
(-0.03491931624 0.1968854472 8.299567134e-22)
(-0.03381868337 0.170332925 -1.885289959e-22)
(-0.03452951599 0.1367267935 0)
(-0.0381461985 0.09480610484 0)
(-0.04567943517 0.04305529878 2.411274573e-23)
(-0.05793601365 -0.02012389673 -6.006299678e-22)
(-0.0751717493 -0.09619247653 -4.30892557e-22)
(-0.0964744942 -0.1855420477 4.637410509e-22)
(-0.1183649875 -0.2853434794 -6.487518291e-22)
(-0.13328538 -0.3838247493 9.115526246e-23)
(-0.1265432615 -0.4504211735 2.947507936e-23)
(-0.08899436145 -0.4198391597 5.660988667e-22)
(-0.01526933871 -0.2111639432 6.022353838e-22)
(-0.005181258898 0.08597800649 0)
(-0.02525982539 0.1766198912 1.465678494e-22)
(-0.03484405643 0.2205810255 -4.916466003e-23)
(-0.03641613751 0.2354675058 7.641743243e-22)
(-0.03020638937 0.23432204 -7.004214848e-22)
(-0.01919199193 0.224144237 4.745681307e-23)
(-0.005644437144 0.2083408364 -1.018542722e-22)
(0.008538306051 0.1881178053 -3.389243819e-22)
(0.02176655355 0.1633903968 2.06249701e-22)
(0.03259589625 0.1333285569 0)
(0.03955387733 0.09664903675 0)
(0.04114129914 0.05175117347 -2.90228867e-22)
(0.03575810087 -0.003243917895 0)
(0.02195753342 -0.07057235081 -5.511790814e-22)
(-0.00128632135 -0.1525633733 -1.490630746e-23)
(-0.03312277409 -0.2505859546 2.559423657e-23)
(-0.06910679701 -0.3599254464 2.202476434e-22)
(-0.09228772344 -0.4575339654 4.790945323e-24)
(-0.08718474543 -0.4698034341 -5.790006112e-22)
(-0.02103167312 -0.2698910242 0)
(-0.01111650631 0.1085972749 0)
(-0.04249255047 0.1947108111 -8.847403618e-22)
(-0.04796402921 0.2258105256 -5.410567308e-22)
(-0.03920993174 0.2282013515 4.543401218e-22)
(-0.01879846097 0.2182197513 -1.710376364e-24)
(0.007639438285 0.2028102431 -4.560490107e-23)
(0.03665175894 0.1847531675 5.695808137e-22)
(0.0657998905 0.1647067153 -2.766469939e-23)
(0.09324063713 0.1423119393 -2.069449874e-22)
(0.1173592553 0.1166305023 3.141791178e-23)
(0.1365179718 0.08641754579 -3.425517319e-23)
(0.1489410564 0.05018480299 -3.690259278e-23)
(0.1525045323 0.006168095243 3.205384991e-22)
(0.1449166359 -0.04795271363 6.119176445e-22)
(0.1234986721 -0.1152979771 -5.100860141e-22)
(0.08632107018 -0.2004138276 -1.615998589e-22)
(0.03197842366 -0.3067762268 1.531279163e-22)
(-0.02363014456 -0.4239792581 7.293771402e-23)
(-0.06492775655 -0.4871562111 1.913292201e-21)
(-0.02510021597 -0.3291505097 2.954992177e-21)
(-0.02004667507 0.1460739229 -4.389925032e-23)
(-0.06416568859 0.2112948419 4.417096086e-23)
(-0.05070752168 0.2177260978 1.000117503e-21)
(-0.01935073928 0.2014613627 -8.259354837e-24)
(0.02413003558 0.1808997246 0)
(0.07152214525 0.1606857037 4.363210098e-23)
(0.1190478808 0.1416434605 -2.273547565e-22)
(0.1644521477 0.1233143761 -9.026678837e-23)
(0.2061997443 0.1048106296 3.680201504e-23)
(0.2429394758 0.0850729105 -1.701428069e-23)
(0.2731975648 0.06296514073 3.429570155e-23)
(0.2952329386 0.03726803966 -6.592050926e-23)
(0.3066791174 0.006540778937 -9.303103727e-23)
(0.304958668 -0.03087220328 1.516961133e-22)
(0.2863812928 -0.07785835126 0)
(0.2470469864 -0.13992689 1.505553878e-22)
(0.1810842731 -0.2266285462 2.55997861e-22)
(0.09603856334 -0.3443877407 0)
(-0.006700653347 -0.4552191519 -3.675629858e-21)
(-0.0192245793 -0.3777520269 -2.89262127e-21)
(-0.02591914673 0.2276841221 -9.514034666e-22)
(-0.0399826652 0.2238225086 -1.38891637e-22)
(0.0365607197 0.1810577786 -2.335408638e-22)
(0.1090470342 0.1451035423 -1.193635464e-22)
(0.1817124012 0.1172411401 -4.295574143e-23)
(0.2489986956 0.09627546682 9.782143713e-23)
(0.3100201068 0.08002202338 -1.408410796e-22)
(0.3646050713 0.06656609357 1.296994468e-22)
(0.4126081991 0.05449103332 -8.618882482e-23)
(0.4536079811 0.04270950943 1.132152855e-25)
(0.4867718835 0.03032464981 1.527577486e-23)
(0.5107310237 0.01653142828 7.996436302e-23)
(0.5236481087 0.0005390747218 -1.810989325e-22)
(0.523170938 -0.01863124405 -1.617062773e-22)
(0.5052258338 -0.04286278275 -4.262657855e-23)
(0.4658669318 -0.0763310536 0)
(0.3952663368 -0.1286085455 -1.846434256e-22)
(0.2916046097 -0.2208466984 8.148711583e-22)
(0.1197439981 -0.3525015878 1.631594413e-21)
(0.02670508981 -0.3775495728 2.172651911e-21)
(0.214289828 0.1347450939 9.864801691e-22)
(0.2776323054 0.09870551396 0)
(0.4316605517 0.05810437252 -2.594204863e-22)
(0.5304754826 0.03846257322 -1.741578622e-22)
(0.6016955712 0.026233889 0)
(0.6571169765 0.01831885193 -6.008474581e-23)
(0.7015166342 0.0131356805 6.377141427e-23)
(0.7375981709 0.009541947301 -1.799868508e-23)
(0.7669300599 0.006804487895 2.885524306e-23)
(0.7902039059 0.004464971064 2.314698177e-23)
(0.8074494126 0.002221707674 0)
(0.8182571981 -0.0001495883678 -2.87273607e-23)
(0.8216464607 -0.00272333778 0)
(0.8162373871 -0.005712284196 2.737915364e-23)
(0.7991324545 -0.009611156932 1.421638609e-23)
(0.7679985539 -0.01500249092 -5.799394809e-23)
(0.7106557933 -0.0250253004 -2.535633844e-22)
(0.6235185377 -0.04204297242 -6.918061113e-22)
(0.4230090884 -0.09182980329 0)
(0.2705674324 -0.1524022397 -2.119479872e-21)
)


// ************************************************************************* //
