/*--------------------------------*- C++ -*----------------------------------*\
  =========                 |
  \\      /  F ield         | OpenFOAM: The Open Source CFD Toolbox
   \\    /   O peration     | Website:  https://openfoam.org
    \\  /    A nd           | Version:  13
     \\/     M anipulation  |
\*---------------------------------------------------------------------------*/
FoamFile
{
    format      ascii;
    class       volScalarField;
    location    "48";
    object      p;
}
// * * * * * * * * * * * * * * * * * * * * * * * * * * * * * * * * * * * * * //

dimensions      [0 2 -2 0 0 0 0];

internalField   nonuniform List<scalar> 
400
(
9.296086801e-09
-0.0005474984475
-0.0008895500729
-0.001017031072
-0.0009381691313
-0.0006853318392
-0.0002960734167
0.000193644844
0.0007473073829
0.001324406277
0.00187926684
0.00235901939
0.002708280822
0.002873983222
0.002814615426
0.002512184583
0.001987145178
0.001296620204
0.0006376897678
4.178651576e-05
0.0005881628083
6.860688653e-06
-0.0003568932526
-0.000499223251
-0.0004685484353
-0.0002914637653
2.623117402e-06
0.0003844266512
0.0008225675916
0.001279805426
0.001716287889
0.002080842406
0.002323075298
0.002395614038
0.00226460148
0.001921283396
0.001392414677
0.0007430436992
0.0001453990043
-0.0005172881431
0.0009524206937
0.000308021363
-9.324987212e-05
-0.0002396087888
-0.0002334962864
-0.0001049780846
0.000121885905
0.0004257789287
0.0007829607476
0.001161442741
0.001529444427
0.001832843846
0.002021707344
0.002047297231
0.001874467686
0.001493404442
0.0009280965565
0.0002351078059
-0.0004633670631
-0.001300339508
0.0009761152494
0.0002579650923
-0.000192275306
-0.0003445878464
-0.000353878743
-0.000256915218
-7.432125325e-05
0.0001812999889
0.0004963844492
0.0008506851022
0.001203017266
0.001510471591
0.001712261651
0.001747857917
0.001568383351
0.001150442041
0.0005058535853
-0.0003186406129
-0.001233982418
-0.002384782924
0.0004804482645
-0.0002850419736
-0.000763928201
-0.0009156179037
-0.0009366507306
-0.0008682474731
-0.0007253607603
-0.0005084301766
-0.0002171750914
0.0001391441848
0.0005300869996
0.0009073787738
0.001199802908
0.001326483057
0.001211007075
0.0008001724558
7.992338198e-05
-0.0009176799846
-0.002127672078
-0.00365617372
-0.0006863776732
-0.001467186464
-0.001956238214
-0.00210728027
-0.002150047443
-0.00212669802
-0.002042328887
-0.001879719844
-0.001617610666
-0.001245574765
-0.0007791544865
-0.0002628943353
0.0002205822149
0.0005614479041
0.0006377946404
0.0003414893122
-0.0003930686291
-0.001564107007
-0.003134894946
-0.005142134036
-0.002661833744
-0.003423557554
-0.003915440685
-0.004080826082
-0.004178189193
-0.004247233976
-0.004278249253
-0.004229198189
-0.004047601663
-0.003689654697
-0.003140803959
-0.002426805609
-0.001633561155
-0.0009034927129
-0.0004248845193
-0.0003987500542
-0.0009882969025
-0.002260636864
-0.004232796958
-0.006828376989
-0.005555047802
-0.006269963135
-0.006768257082
-0.006982216619
-0.007195614031
-0.007443511708
-0.007697213089
-0.007882275299
-0.007902242031
-0.007660688145
-0.007087427039
-0.006159575516
-0.004943829415
-0.003604950754
-0.002414018924
-0.001714600376
-0.001843286571
-0.003015100035
-0.005368534586
-0.008662330335
-0.009435288251
-0.01008161215
-0.0105984744
-0.01091071825
-0.01132613018
-0.01187602177
-0.01251140063
-0.01311977366
-0.013547931
-0.01362350118
-0.01318262621
-0.01212127455
-0.01042818345
-0.008256717467
-0.005956489789
-0.004062065506
-0.003190329509
-0.003843230197
-0.006426626405
-0.01049181568
-0.01431705721
-0.01487604922
-0.01542303204
-0.01588227219
-0.01659011291
-0.01758025181
-0.0187871186
-0.02005925308
-0.02117774083
-0.02187379441
-0.02185757318
-0.02087245758
-0.01877211835
-0.01562029339
-0.01179526672
-0.008037528065
-0.005360085402
-0.004760343963
-0.007181365505
-0.01197944763
-0.02015455716
-0.02060479295
-0.02117498425
-0.02179698564
-0.02285234009
-0.02439060091
-0.02633947603
-0.02851386708
-0.03062781139
-0.0323037472
-0.03309550444
-0.03254095351
-0.03028273166
-0.02617893126
-0.0205251265
-0.01420415502
-0.008691763016
-0.005726832566
-0.007219479199
-0.01246662697
-0.02685658279
-0.02716234543
-0.02770278679
-0.02842320396
-0.02978940358
-0.03188934408
-0.03465913543
-0.03788990398
-0.04123419268
-0.04420531981
-0.04618839461
-0.04647904313
-0.04446334312
-0.03966029041
-0.03212127549
-0.0226989979
-0.01326680353
-0.006486162585
-0.005808854223
-0.01076545038
-0.03433494768
-0.03441835454
-0.03478969493
-0.03540478083
-0.03689209361
-0.03941024781
-0.0429202963
-0.04719793755
-0.05184033606
-0.05625865307
-0.05968001055
-0.06119117379
-0.05977979689
-0.05465604151
-0.04544131646
-0.03269995589
-0.01845333416
-0.006246140469
-0.001674183731
-0.00487381833
-0.04261009338
-0.04227966121
-0.04219587775
-0.04229619955
-0.04351394957
-0.04611664792
-0.05009986745
-0.05522064356
-0.06101533141
-0.06679644682
-0.07164039365
-0.07441329391
-0.07383285279
-0.06867517003
-0.0580722302
-0.04206210068
-0.02244030848
-0.003257475175
0.007346819282
0.008341215425
-0.05201059943
-0.05076125293
-0.04967807003
-0.04857916608
-0.04892703555
-0.05112046951
-0.05517316996
-0.06079652204
-0.06743583355
-0.07429020444
-0.08028308522
-0.08407653995
-0.08413097222
-0.0788378569
-0.06684311733
-0.04752372376
-0.02212775066
0.00550151351
0.02471511628
0.03352715674
-0.06365619627
-0.06018949713
-0.05709763863
-0.05376468159
-0.05246582543
-0.05368050161
-0.05736535552
-0.0631385593
-0.07026303459
-0.07780149922
-0.08449318985
-0.08878640348
-0.08889872224
-0.08283999577
-0.06885107816
-0.0456210986
-0.01375177508
0.02441665818
0.05553941184
0.0773556525
-0.08018674841
-0.07107530794
-0.06412156877
-0.05716586964
-0.05343202743
-0.05321611686
-0.05625988349
-0.06191491773
-0.06926006967
-0.07711806124
-0.08401332537
-0.08815278165
-0.08748121183
-0.07965692888
-0.06247977337
-0.03405068437
0.005564707402
0.05859388642
0.1058229266
0.1480676345
-0.1105081331
-0.08585543377
-0.07160740927
-0.05897245147
-0.05191486044
-0.04988461499
-0.05210443487
-0.05751060048
-0.06486143396
-0.07271032037
-0.07934173971
-0.0827150347
-0.08052075677
-0.06988765557
-0.04823271771
-0.01272274981
0.03823602976
0.1071319987
0.1779785617
0.2564764004
-0.168438315
-0.09990959334
-0.07500968598
-0.05479932012
-0.04462047718
-0.0415870248
-0.04371967072
-0.04938361397
-0.05701928051
-0.06497285501
-0.07136372292
-0.0739819925
-0.07013078472
-0.05701425781
-0.03102885503
0.01192918914
0.07559938089
0.1664041494
0.2761619282
0.4377041913
-0.3984296044
-0.1381007586
-0.07497186059
-0.04708987532
-0.03355095533
-0.03003177474
-0.03280399601
-0.03926682306
-0.04756062356
-0.05594118124
-0.06250219588
-0.06503125996
-0.06099649159
-0.04697028075
-0.01875706799
0.0299353163
0.1069555735
0.2334271629
0.4198801181
0.7800232998
)
;

boundaryField
{
    movingWall
    {
        type            zeroGradient;
    }
    fixedWalls
    {
        type            zeroGradient;
    }
    frontAndBack
    {
        type            empty;
    }
}


// ************************************************************************* //
