/*--------------------------------*- C++ -*----------------------------------*\
  =========                 |
  \\      /  F ield         | OpenFOAM: The Open Source CFD Toolbox
   \\    /   O peration     | Website:  https://openfoam.org
    \\  /    A nd           | Version:  13
     \\/     M anipulation  |
\*---------------------------------------------------------------------------*/
FoamFile
{
    format      ascii;
    class       volScalarField;
    location    "48";
    object      p;
}
// * * * * * * * * * * * * * * * * * * * * * * * * * * * * * * * * * * * * * //

dimensions      [0 2 -2 0 0 0 0];

internalField   nonuniform List<scalar> 
400
(
1.413815913e-06
-0.0005274713587
-0.001174631448
-0.001676409412
-0.001912748056
-0.001834115094
-0.001415847009
-0.00064682628
0.000464001347
0.001872440697
0.003483957355
0.005147395573
0.006666036134
0.00782939281
0.008463695018
0.008488586982
0.007960465673
0.007086294416
0.006199200408
0.005645057073
0.000540531106
-7.945904841e-06
-0.0005799657343
-0.0009809713048
-0.001158929263
-0.001086900027
-0.0007435193631
-0.0001135080319
0.0008036736396
0.0019789728
0.00333875036
0.004757643262
0.006065894211
0.007077826468
0.007637745384
0.007672262198
0.007228653621
0.006479816889
0.005687905364
0.005124195461
0.001213867454
0.0005275752069
-7.697989982e-05
-0.0004428707757
-0.0006056540263
-0.0005728014384
-0.000328743938
0.0001493681386
0.0008782716908
0.00185078843
0.003017306832
0.004274070506
0.005466240753
0.006412612623
0.006951174282
0.006993925764
0.006567758657
0.005813584511
0.004936968641
0.004202833995
0.001697819661
0.0008128116058
9.016034955e-05
-0.0003191788123
-0.0005298445164
-0.0005821843645
-0.0004641072673
-0.0001404224743
0.0004280907116
0.00126151342
0.002335672706
0.003562989013
0.004788815533
0.005812588594
0.006435719731
0.006526056798
0.006072175591
0.005187987149
0.004059187011
0.003022702425
0.001736105389
0.0006503069581
-0.0002163893322
-0.0007133851131
-0.001022639921
-0.001209665713
-0.001259737072
-0.001119060068
-0.0007189922625
-4.838318655e-06
0.001031282164
0.002321798137
0.00370915371
0.004960224724
0.005814680616
0.006062794455
0.005624082633
0.004572944171
0.003095016057
0.001660250631
0.001116104442
-0.0001484501466
-0.001160451097
-0.00177495361
-0.002230531332
-0.002609694347
-0.002888734124
-0.002988860083
-0.002804071396
-0.002234365286
-0.001226341035
0.0001869553025
0.00185409853
0.003506462027
0.004799537474
0.005403911877
0.005119450438
0.003942676845
0.002056282999
0.0001250100403
-0.0003407890041
-0.001751645072
-0.002901956436
-0.003661237226
-0.004314968162
-0.004956417213
-0.005548667883
-0.005983017866
-0.006107989046
-0.005764248074
-0.004831342843
-0.00328367837
-0.001238979572
0.001010458736
0.003020899416
0.004293102755
0.004429934066
0.003271456264
0.0009578518144
-0.0015810384
-0.002771626762
-0.004290075858
-0.005567619239
-0.006498301999
-0.007406140766
-0.008392196965
-0.009405862499
-0.01030679172
-0.01089159314
-0.010926754
-0.01019855544
-0.008581449768
-0.006116588632
-0.003082444511
-1.594352874e-05
0.002366558784
0.003365898924
0.00252887939
-0.0001509949175
-0.003409588043
-0.006259902037
-0.00784256588
-0.009230611164
-0.01035268789
-0.01156567448
-0.01298007114
-0.01453602863
-0.01606458728
-0.01730822437
-0.01794696477
-0.01764612469
-0.01613393459
-0.01331035436
-0.009370636079
-0.004899089966
-0.0008484234673
0.001663162436
0.001683182197
-0.001149612274
-0.005204517486
-0.01082584221
-0.01242508076
-0.01389413004
-0.01520524887
-0.01674835038
-0.01865142875
-0.0208553985
-0.02317110017
-0.02529077767
-0.02680281602
-0.0272305783
-0.02611182975
-0.02313479547
-0.01830964599
-0.01216713038
-0.00585072116
-0.0009836725595
0.0007223249044
-0.0017955791
-0.006614700266
-0.01642657441
-0.01798933955
-0.01948319623
-0.02093163747
-0.02276982042
-0.02516037156
-0.02806019585
-0.03127233657
-0.03444813425
-0.03708828408
-0.03856700792
-0.03820180592
-0.03541597859
-0.02991552742
-0.02202806648
-0.01294691862
-0.004787872251
-0.0002723029115
-0.001646073589
-0.006962267352
-0.0229754364
-0.02443808982
-0.02585078722
-0.02729706383
-0.0292925423
-0.03206434572
-0.0356039359
-0.03971871614
-0.04402928779
-0.04795865099
-0.05074223896
-0.05148449631
-0.04927134672
-0.04345915342
-0.03399810351
-0.02189845651
-0.009596477312
-0.0009511020708
7.522372906e-05
-0.00504709952
-0.03039194134
-0.03166293509
-0.03280026259
-0.03396814965
-0.03583792434
-0.03874660417
-0.04273709365
-0.04762546247
-0.0530041848
-0.05822553393
-0.06239753416
-0.06442002562
-0.06309081925
-0.05734565158
-0.04664488586
-0.03156083505
-0.01451754412
-0.0003943892989
0.004712212636
0.001131973522
-0.03870416517
-0.03960987252
-0.04011871869
-0.04053621099
-0.04182374897
-0.04448389249
-0.04861448385
-0.05402586532
-0.06026699725
-0.06661190168
-0.07204718647
-0.07529121811
-0.07487872983
-0.06935992072
-0.05767079654
-0.03975954471
-0.01763071919
0.003239990896
0.0145300039
0.01473416412
-0.04825191569
-0.04838208436
-0.04761123486
-0.04654163127
-0.04662030741
-0.04854997844
-0.05244939265
-0.05807711448
-0.06489721377
-0.07207533012
-0.07846233909
-0.08260032807
-0.08278623228
-0.07723716175
-0.06441408107
-0.04359597817
-0.01603288767
0.01287504806
0.03297816521
0.04029660422
-0.06003360309
-0.05840696957
-0.05514438226
-0.05151030615
-0.04963497874
-0.05034923826
-0.05368314803
-0.05925580268
-0.06637870503
-0.07405826305
-0.08097402322
-0.08547161571
-0.0856081445
-0.07929177439
-0.06457076287
-0.04012375452
-0.006304776639
0.03226803501
0.06446651569
0.08326122848
-0.07629642348
-0.0707515551
-0.06268772961
-0.05499670273
-0.05040986199
-0.04953765695
-0.05210161301
-0.05745412347
-0.06467120517
-0.07254297995
-0.07953807973
-0.08377475752
-0.08304155036
-0.07490362104
-0.05697202168
-0.02733693436
0.01456730369
0.06548871855
0.1143841756
0.1501839302
-0.1041964745
-0.08796141054
-0.06999954703
-0.05627844123
-0.04837883014
-0.04579068759
-0.04760535811
-0.05275485724
-0.05999339073
-0.06785881298
-0.07460212906
-0.07811497345
-0.07590982645
-0.06514684646
-0.04284101552
-0.00617659526
0.04678672873
0.1153490073
0.191500221
0.2583092534
-0.1759949248
-0.114904778
-0.07361425311
-0.05188547282
-0.04117614656
-0.03757666776
-0.03929756417
-0.04476066231
-0.05235330158
-0.06040132223
-0.06701916011
-0.06995722407
-0.0665377784
-0.05358547752
-0.02737468249
0.0164309068
0.08276623065
0.1774103358
0.3054555778
0.4527100877
-0.355865765
-0.1552685093
-0.07043693844
-0.04277841374
-0.03134554074
-0.02760312475
-0.0297916751
-0.03598592477
-0.04424145947
-0.05275583461
-0.05961430754
-0.06255587644
-0.05885348142
-0.04517797091
-0.0172392701
0.030830764
0.1084494477
0.2333860532
0.4348319499
0.7358964747
)
;

boundaryField
{
    movingWall
    {
        type            zeroGradient;
    }
    fixedWalls
    {
        type            zeroGradient;
    }
    frontAndBack
    {
        type            empty;
    }
}


// ************************************************************************* //
