/*--------------------------------*- C++ -*----------------------------------*\
  =========                 |
  \\      /  F ield         | OpenFOAM: The Open Source CFD Toolbox
   \\    /   O peration     | Website:  https://openfoam.org
    \\  /    A nd           | Version:  13
     \\/     M anipulation  |
\*---------------------------------------------------------------------------*/
FoamFile
{
    format      ascii;
    class       surfaceScalarField;
    location    "48";
    object      phi;
}
// * * * * * * * * * * * * * * * * * * * * * * * * * * * * * * * * * * * * * //

dimensions      [0 3 -1 0 0 0 0];

internalField   nonuniform List<scalar> 
760
(
4.577386565e-06
-4.783855704e-06
-3.89006224e-05
4.347763583e-05
-0.000131824843
9.292362551e-05
-0.0002581661416
0.0001263405179
-0.0004019341447
0.0001437668363
-0.0005496931203
0.0001477583004
-0.0006895167223
0.0001398248079
-0.0008096079726
0.0001200922713
-0.0008977358527
8.812811081e-05
-0.0009419444444
4.42090009e-05
-0.0009324872501
-9.456248901e-06
-0.0008646185474
-6.786782252e-05
-0.0007414207159
-0.0001231976696
-0.0005756979567
-0.0001657233838
-0.0003897781681
-0.0001859207236
-0.0002124228905
-0.0001773558686
-7.284876483e-05
-0.0001395740457
7.182678243e-06
-8.003089646e-05
2.281652526e-05
-1.563354953e-05
2.281638242e-05
-4.748861921e-05
4.270479337e-05
-0.0002104987576
0.00020648586
-0.0004755602073
0.0003579832052
-0.0008099618922
0.0004607401947
-0.001179254628
0.0005130603196
-0.00155173911
0.0005202430593
-0.001897763146
0.0004858502327
-0.002188275337
0.0004106065936
-0.002394734217
0.0002945896654
-0.002491175516
0.0001406528845
-0.002458284505
-4.234537708e-05
-0.00228855414
-0.0002375976485
-0.001991314501
-0.0004204383417
-0.001595703315
-0.0005613364926
-0.001149869945
-0.0006317556658
-0.0007148648074
-0.0006123612638
-0.0003528920051
-0.0005015459619
-0.0001114029611
-0.0003215188903
-5.731537356e-06
-0.0001213051662
1.70845744e-05
-0.0001124286478
0.0001551320283
-0.0004075114306
0.0005015658468
-0.0008388695578
0.0007893393949
-0.001357158411
0.0009790259077
-0.001915176728
0.00107107853
-0.002469197576
0.001074264255
-0.002977694113
0.0009943484488
-0.003400141509
0.0008330565714
-0.003697584867
0.0005920365076
-0.003835562623
0.0002786335626
-0.003789060487
-8.884590714e-05
-0.003548563911
-0.0004780939186
-0.00312592654
-0.0008430762446
-0.00255828759
-0.001128975822
-0.001907964879
-0.001282077628
-0.001256108422
-0.001264216004
-0.000688784143
-0.001068868977
-0.00027668492
-0.0007336183915
-5.332949209e-05
-0.0003446611351
-3.624469191e-05
-0.0001742924533
0.0003294238308
-0.0005969165361
0.0009241876743
-0.001185269164
0.001377691527
-0.001870959575
0.001664714959
-0.002595603435
0.001795723187
-0.003307230413
0.001785892766
-0.003957004369
0.001644125341
-0.004497432639
0.001373488106
-0.004882894002
0.0009775013698
-0.005072617058
0.0004683586658
-0.00503568206
-0.0001257805098
-0.004757368624
-0.0007564077265
-0.00424600565
-0.001354439572
-0.00353889549
-0.001836085974
-0.002705045471
-0.002115926948
-0.001841336088
-0.002127924445
-0.001058791923
-0.001851413282
-0.0004585550554
-0.001333857009
-0.0001036720904
-0.0006995438447
-0.0001399162573
-0.0002293609118
0.0005587848614
-0.0007672297824
0.001462054084
-0.001497690718
0.002108151788
-0.002333893283
0.002500916266
-0.003207766454
0.002669597226
-0.004061909849
0.002640037624
-0.004843694359
0.002425911896
-0.005502055773
0.002031851847
-0.005987112137
0.001462561041
-0.006252341319
0.0007335900864
-0.006258958001
-0.0001191629777
-0.005982221418
-0.001033143764
-0.005419707655
-0.001916952249
-0.004600498766
-0.002655293346
-0.003593126384
-0.003123298389
-0.00250742478
-0.003213626634
-0.001483773598
-0.002875066828
-0.0006653589993
-0.002152274112
-0.0001585464533
-0.001206355075
-0.0002984623651
-0.0002757413677
0.0008345258721
-0.0009116987365
0.002098010425
-0.001764126982
0.002960581041
-0.002730534087
0.003467322787
-0.003735416649
0.003674480856
-0.004718590831
0.003623213443
-0.005626652968
0.003333975473
-0.006407835615
0.002813035967
-0.007009980899
0.002064709192
-0.007381142983
0.001104754164
-0.007472713677
-2.759166739e-05
-0.007245182562
-0.001260674131
-0.006677908248
-0.002484224835
-0.005782213415
-0.003550986163
-0.004616612201
-0.004288899188
-0.003298120825
-0.004532120561
-0.001999223409
-0.004173968606
-0.0009187096151
-0.003232789943
-0.0002254854221
-0.001899577302
-0.0005239481242
-0.0003115026324
0.001146027453
-0.001024010203
0.002810517932
-0.001972785196
0.003909358155
-0.003043604496
0.004538142069
-0.004156244336
0.004787122092
-0.005250354137
0.004717325586
-0.006274596306
0.004358219413
-0.007179357502
0.003717798801
-0.007912601932
0.002797956895
-0.008418326362
0.001610481098
-0.0086375712
0.0001916543426
-0.008513340789
-0.001384903217
-0.008000310223
-0.002997253127
-0.007081813127
-0.004469481441
-0.00579307402
-0.005577638963
-0.004245857976
-0.006079340649
-0.002640697791
-0.005779133484
-0.001244049736
-0.004629438256
-0.0003139302158
-0.002829695149
-0.0008378792994
-0.0003347232114
0.001480750467
-0.001098050245
0.003573846029
-0.002111733683
0.004923044622
-0.003253945314
0.005680354862
-0.004442426962
0.005975605515
-0.005619114154
0.005894015449
-0.006737489019
0.005476595816
-0.007753235657
0.004733546407
-0.008617814804
0.003662538419
-0.009274404221
0.002267072266
-0.009656344667
0.0005735953848
-0.009689521895
-0.001351724917
-0.009300905869
-0.003385866997
-0.008436687909
-0.005333697979
-0.007092451455
-0.006921876445
-0.005353540329
-0.007818254752
-0.003431961815
-0.007700713967
-0.001665615529
-0.006395783348
-0.000434216081
-0.004061094313
-0.001272096772
-0.0003441571347
0.001824908512
-0.001129386147
0.0043590769
-0.00217112041
0.00596478221
-0.00334355642
0.006852793148
-0.00456469515
0.007196745879
-0.00578091119
0.007110233696
-0.006953143818
0.006648829054
-0.008045837852
0.005826240433
-0.009018434926
0.004635136647
-0.009818815065
0.003067453172
-0.01037870406
0.001133484251
-0.01061234395
-0.001118084656
-0.01042124556
-0.003576963897
-0.009709649022
-0.006045293486
-0.008417387451
-0.008214139151
-0.006574606091
-0.009661037023
-0.004371186145
-0.00990413185
-0.00220129124
-0.008565678067
-0.0005971768052
-0.005665210051
-0.001869275222
-0.0003403357047
0.002165245435
-0.00111792833
0.005136672022
-0.002147291019
0.006994148345
-0.003301190359
0.008006695934
-0.004499719281
0.008395276403
-0.005695621909
0.008306138321
-0.00685980955
0.00781301653
-0.007969078798
0.006935508913
-0.00899604998
0.005662108497
-0.009900558035
0.003971961759
-0.01062204779
0.001854973708
-0.01107350633
-0.0006666261972
-0.01114056284
-0.003509907254
-0.01068858675
-0.006497270303
-0.009591649899
-0.009311076956
-0.007794205638
-0.01145847986
-0.005413734687
-0.01228459762
-0.002854765901
-0.01112464985
-0.0008135315543
-0.007706446245
-0.002682807721
-0.0003270487791
0.002492295244
-0.001071456728
0.005881082869
-0.002048150854
0.007970845392
-0.003129530049
0.00908807894
-0.00423958455
0.009505331854
-0.005339643561
0.009406199393
-0.006413177516
0.008886550332
-0.007452760453
0.007975090659
-0.008449235522
0.006658583951
-0.00938194482
0.004904672178
-0.01020903088
0.002682060742
-0.01085581367
-1.984279363e-05
-0.0112091916
-0.00315652917
-0.01110899904
-0.006597464279
-0.01036666054
-0.01005341657
-0.008819290521
-0.01300584817
-0.006453929685
-0.01464995392
-0.003603195618
-0.01397538914
-0.001092184554
-0.01021745709
-0.00377499094
-0.0003132595008
0.002805555643
-0.001009755151
0.00657758155
-0.001898872408
0.008859964479
-0.002852253043
0.01004146307
-0.003800762453
0.01045384052
-0.004717925858
0.0103233644
-0.00560296294
0.009771588174
-0.006467267478
0.008839394064
-0.007323738666
0.007515054628
-0.008177100543
0.005758035059
-0.009013167478
0.003518129647
-0.009786946448
0.0007539387866
-0.0104026074
-0.002540866251
-0.01070186866
-0.006298202244
-0.01045395853
-0.0103013253
-0.009388248272
-0.01407155638
-0.007313466277
-0.01672473522
-0.004380888645
-0.01690797045
-0.001436256464
-0.01316208538
-0.005211244561
-0.0003158191235
0.003121375637
-0.0009693135166
0.007231078649
-0.0017468136
0.009637465175
-0.002518509081
0.01081316205
-0.003228644285
0.01116397294
-0.003869692006
0.01096441101
-0.004461255071
0.01036315218
-0.005036230673
0.009414369315
-0.00563139162
0.008110213845
-0.006279331985
0.00640597432
-0.006999192877
0.004237991341
-0.007783659274
0.001538407835
-0.008578284457
-0.001746237695
-0.009254852342
-0.005621630988
-0.009579879602
-0.009976292151
-0.009205445896
-0.01444598518
-0.007746451869
-0.0181837317
-0.005063562673
-0.01959085856
-0.001835117277
-0.01639052776
-0.007046361792
-0.0003639198541
0.003485296318
-0.001008632933
0.00787579343
-0.001663672386
0.01029250335
-0.002200748193
0.01135024144
-0.002591635343
0.01155485737
-0.002859771038
0.01123254188
-0.003051954294
0.01055533389
-0.003224998021
0.009587414256
-0.003439110136
0.008324326844
-0.003753111368
0.00671997501
-0.004218544695
0.004703425029
-0.004869744931
0.002189609916
-0.005705644195
-0.0009103365895
-0.006657898482
-0.004669375353
-0.007540263416
-0.009093922219
-0.007989901212
-0.01399634293
-0.007463094491
-0.01871054401
-0.005459404314
-0.02159454288
-0.002250267751
-0.01959966678
-0.009296632459
-0.0005058693061
0.00399116635
-0.001211873593
0.008581798004
-0.001738113245
0.01081873858
-0.001975133814
0.01158726356
-0.001951201457
0.01153092567
-0.001739970057
0.01102130894
-0.001424382622
0.01023974523
-0.001087127927
0.009250162093
-0.0008094279227
0.008046631361
-0.0006713236234
0.006581874502
-0.000750770454
0.004782875058
-0.001119399567
0.002558241599
-0.001831096306
-0.0001986393663
-0.002895116924
-0.00360535627
-0.004219299496
-0.007769738928
-0.005509425236
-0.0127062175
-0.006156341614
-0.01806363603
-0.005305427162
-0.02244544903
-0.002592553297
-0.02231254079
-0.01188918366
-0.0008113250116
0.004802491754
-0.001675532632
0.009446005379
-0.002030395531
0.01117359645
-0.001846062752
0.0114029297
-0.001264272781
0.01094913723
-0.0004359815004
0.01019302164
0.0005109066341
0.009292861215
0.001468025522
0.008293048039
0.002337985646
0.007176675482
0.00302699717
0.005892864654
0.003439784492
0.004370087673
0.003477511954
0.002520513207
0.003040509522
0.0002383604365
0.002042997417
-0.002607846063
0.0004576851911
-0.006184424431
-0.001570055402
-0.01067847501
-0.003507270585
-0.01612642299
-0.004258318462
-0.02169439936
-0.002688651145
-0.02388220994
-0.01457782814
-0.001347887499
0.006150378962
-0.002415363826
0.01051348253
-0.002378235432
0.01113646685
-0.001484257864
0.0105089509
-9.00855025e-05
0.009554965358
0.001552728522
0.008550209072
0.003274692099
0.007570897893
0.004952221566
0.006615516708
0.006483969361
0.005644923417
0.007774757864
0.004602069747
0.008724504831
0.003420334717
0.009220960552
0.002024054653
0.009135127703
0.0003241926108
0.008323587205
-0.001796303594
0.006647350459
-0.004508182607
0.004057313038
-0.008088433446
0.0008491233255
-0.01291822277
-0.001880805741
-0.01896447098
-0.00225454438
-0.02350847984
-0.01683237369
-0.002135133063
0.008285511095
-0.002919930473
0.01129828166
-0.001682501879
0.009899039878
0.0005424816786
0.008283965217
0.003126244666
0.006971200923
0.005777769525
0.005898687372
0.008343574327
0.005005098139
0.01072667805
0.004232415567
0.01285247218
0.003519127983
0.01464769466
0.002806843409
0.01602665079
0.002041376592
0.01688258908
0.001168117958
0.01707877025
0.0001280146426
0.01644384263
-0.001161373249
0.01476274714
-0.002827088416
0.01180137414
-0.005127067746
0.007468655213
-0.008585497489
0.002451304799
-0.01394711766
-0.0008820473734
-0.02017512048
-0.01771442049
-0.002488314953
0.01077382484
-1.294735028e-05
0.008822912834
0.004177795885
0.005708301303
0.008329095965
0.00413266671
0.01212561594
0.00317467758
0.01553583872
0.002488460091
0.01856010706
0.001980826747
0.0212034872
0.001589033809
0.02346215428
0.001260461072
0.025312975
0.0009560252312
0.02670879335
0.0006455607929
0.02757236818
0.0003045443622
0.02779130913
-9.092833343e-05
0.02720635099
-0.0005764177611
0.02558079282
-0.001201530058
0.02255329861
-0.002099572912
0.01762219058
-0.003654386961
0.01040343153
-0.006728357974
0.002476276838
-0.01224796352
-0.01523814384
0.0107738253
0.01959673545
0.02530503501
0.0294377015
0.03261238044
0.03510084275
0.03708167144
0.0386707061
0.03993116584
0.04088718768
0.04153274544
0.04183728985
0.04174636446
0.04116995023
0.03996842095
0.0378688478
0.03421446019
0.0274861055
0.01523814354
)
;

boundaryField
{
    movingWall
    {
        type            calculated;
        value           uniform 0;
    }
    fixedWalls
    {
        type            calculated;
        value           uniform 0;
    }
    frontAndBack
    {
        type            empty;
    }
}


// ************************************************************************* //
