/*--------------------------------*- C++ -*----------------------------------*\
  =========                 |
  \\      /  F ield         | OpenFOAM: The Open Source CFD Toolbox
   \\    /   O peration     | Website:  https://openfoam.org
    \\  /    A nd           | Version:  13
     \\/     M anipulation  |
\*---------------------------------------------------------------------------*/
FoamFile
{
    format      ascii;
    class       surfaceScalarField;
    location    "48";
    object      phi;
}
// * * * * * * * * * * * * * * * * * * * * * * * * * * * * * * * * * * * * * //

dimensions      [0 3 -1 0 0 0 0];

internalField   nonuniform List<scalar> 
760
(
-1.321875259e-05
1.321865096e-05
-7.201773624e-05
5.879898496e-05
-0.0001620727068
9.005497559e-05
-0.0002652228982
0.0001031501934
-0.000368242596
0.0001030196882
-0.0004615044412
9.326183153e-05
-0.0005377500808
7.624563663e-05
-0.0005912421794
5.349211146e-05
-0.0006175093805
2.626722008e-05
-0.0006135893947
-3.919976518e-06
-0.0005784600505
-3.512934981e-05
-0.0005138428225
-6.461723964e-05
-0.0004246595259
-8.918330655e-05
-0.0003192817904
-0.0001053777408
-0.0002092254133
-0.0001100563818
-0.0001081385929
-0.0001010868307
-2.992499408e-05
-7.821361362e-05
1.41493502e-05
-4.407434861e-05
2.190955336e-05
-7.760179848e-06
2.190958123e-05
-6.870331797e-05
8.192196868e-05
-0.0002457755567
0.0002358712213
-0.0004934732682
0.0003377526754
-0.0007722779836
0.0003819549022
-0.001050409591
0.0003811513028
-0.001303006389
0.0003458586431
-0.00151060449
0.0002838437475
-0.001657872509
0.000200760126
-0.001733200036
0.0001015947339
-0.001729305781
-7.814254091e-06
-0.001643831444
-0.00012060369
-0.001481414042
-0.000227034635
-0.001254381854
-0.0003162154878
-0.0009832948783
-0.0003764647205
-0.0006961416238
-0.0003972096553
-0.000425731472
-0.0003714970078
-0.00020499328
-0.0002989518149
-5.981231973e-05
-0.0001892552826
-4.921713715e-07
-6.708028433e-05
2.141741113e-05
-0.0001229341862
0.0002048561533
-0.0004149723602
0.0005279094051
-0.0008086682845
0.0007314485979
-0.001247165327
0.000820451939
-0.001684661815
0.0008186477859
-0.002084430661
0.0007456274848
-0.00241696617
0.000616379256
-0.00265857685
0.000442370809
-0.002790992204
0.0002340100965
-0.002802414121
3.607668718e-06
-0.002687902607
-0.0002351151868
-0.002452961993
-0.0004619752388
-0.002114172029
-0.0006550054504
-0.001700374465
-0.0007902622932
-0.001251822492
-0.0008457616428
-0.0008167447707
-0.0008065747398
-0.0004446233473
-0.0006710732309
-0.0001762320963
-0.0004576465093
-3.221221333e-05
-0.0002111001501
-1.079481284e-05
-0.0001720783542
0.000376934505
-0.0005725607758
0.0009283918332
-0.001105967864
0.001264855691
-0.001698036606
0.001412520685
-0.002290597311
0.001411208492
-0.002837254752
0.001292284923
-0.003300217702
0.001079342199
-0.003648292538
0.000790445637
-0.003856339475
0.0004420570308
-0.003905816695
5.308491611e-05
-0.003787748227
-0.0003531836385
-0.00350402531
-0.0007456981369
-0.003071272843
-0.001087757905
-0.00252263112
-0.001338904018
-0.001907996367
-0.001460396414
-0.001290905686
-0.001423665444
-0.0007407542955
-0.001221224634
-0.0003202709143
-0.0008781298874
-7.110222498e-05
-0.0004602688472
-8.189705472e-05
-0.0002170221138
0.0005939566193
-0.0007188332967
0.001430203007
-0.001385655863
0.001931678257
-0.002127123717
0.002153988543
-0.002874374408
0.002158459188
-0.003573195699
0.00199110622
-0.004178979773
0.001685126275
-0.00465358489
0.001265050751
-0.004964199205
0.0007526713436
-0.005084017963
0.0001729036734
-0.004995023853
-0.0004421777386
-0.004691189507
-0.001049532466
-0.004183518582
-0.001595428816
-0.003504390158
-0.002018032442
-0.002710450395
-0.002254336193
-0.001881578115
-0.00225253775
-0.001113233286
-0.001989569485
-0.0005008210981
-0.001490542085
-0.0001191421329
-0.0008419478301
-0.0002010391981
-0.0002573667767
0.0008513234029
-0.000851339927
0.002024176149
-0.001642296907
0.002722635234
-0.002526557599
0.003038249232
-0.003426901542
0.003058803131
-0.00428338921
0.002847593889
-0.005046215282
0.002447952347
-0.005671018696
0.001889854163
-0.006116752062
0.001198404708
-0.006345982533
0.0004021341464
-0.006327843941
-0.000460316321
-0.006042476769
-0.001334899622
-0.005488324178
-0.002149581393
-0.004689982357
-0.002816374259
-0.003705727869
-0.003238590691
-0.002631183567
-0.003327082071
-0.001594227057
-0.003026526009
-0.000736387265
-0.002348381886
-0.0001821206601
-0.001396214448
-0.0003831598594
-0.0002911841706
0.001142507575
-0.000964125368
0.002697117347
-0.00186416395
0.003622673817
-0.002878145919
0.004052231202
-0.003923464952
0.004104122164
-0.004937002029
0.003861130962
-0.005865889326
0.003376839639
-0.006661002601
0.002684967432
-0.007273440334
0.001810842438
-0.007653973991
0.0007826678062
-0.007755806408
-0.0003584838935
-0.007539789148
-0.001550916865
-0.006984028132
-0.002705342391
-0.006095814862
-0.003704587518
-0.004925704591
-0.00440870096
-0.003579480163
-0.004673306503
-0.002220388391
-0.004385617786
-0.001050845735
-0.003517924542
-0.0002684677982
-0.002178592389
-0.000651627653
-0.0003159656147
0.001458473181
-0.001048737687
0.003429889422
-0.002034531911
0.004608468044
-0.003154904058
0.005172603356
-0.004325133467
0.005274351578
-0.005481849689
0.005017847184
-0.006571932605
0.004466922547
-0.007544121425
0.003657156242
-0.008343811687
0.002610532691
-0.00891113088
0.001349986998
-0.009182806723
-8.68080435e-05
-0.009097013285
-0.001636710289
-0.008604584769
-0.003197770889
-0.00768419952
-0.004624972751
-0.006364068842
-0.005728831627
-0.004746043722
-0.006291331617
-0.003022882449
-0.006108779055
-0.001469581398
-0.00507122559
-0.0003882445619
-0.003259929221
-0.00103987221
-0.0003291956187
0.001787668793
-0.001096443085
0.004197136885
-0.002135079771
0.00564710473
-0.003325368542
0.006362892133
-0.004583651798
0.006532634841
-0.005849373573
0.006283568963
-0.007072575225
0.005690124196
-0.008203825069
0.004788406076
-0.009187258668
0.003593966278
-0.009956894004
0.002119622325
-0.01043606983
0.0003923677809
-0.01054225013
-0.001530529981
-0.01019503539
-0.003544985624
-0.00933408956
-0.005485918563
-0.007946629358
-0.007116291817
-0.006105927035
-0.008132033932
-0.004012930412
-0.008201775673
-0.002014593063
-0.007069562934
-0.0005528022389
-0.00472172004
-0.001592674445
-0.0003297928717
0.002117461666
-0.001101701877
0.004969045881
-0.002151423421
0.006696826274
-0.003361078009
0.007572546726
-0.004650845778
0.007822402617
-0.005965957086
0.007598680275
-0.007263379628
0.006987546737
-0.008500566194
0.006025592634
-0.009627012052
0.004720412123
-0.01057860301
0.003071213267
-0.01127459558
0.001088360337
-0.01161814909
-0.001186976476
-0.01150162939
-0.003661505319
-0.01082052646
-0.006167021487
-0.009503001655
-0.008433816615
-0.007560609058
-0.01007442652
-0.005160873442
-0.01060151129
-0.002696115649
-0.009534320724
-0.0007741503578
-0.006643685326
-0.002366824802
-0.0003199349337
0.0024373966
-0.00106668673
0.005715797669
-0.00208042395
0.007710563495
-0.003246814675
0.008738937456
-0.004492308073
0.009067896021
-0.005770873471
0.008877245676
-0.007050316289
0.008266989555
-0.008300542312
0.007275818654
-0.00948430224
0.005904172042
-0.01054996275
0.004136873765
-0.01142562087
0.001964018439
-0.01201417237
-0.000598424985
-0.01219379477
-0.003481882934
-0.011820969
-0.006539847257
-0.01075537878
-0.009499406828
-0.008913750752
-0.01191605455
-0.006370857915
-0.01314440412
-0.003498965236
-0.0124062134
-0.001063151401
-0.009079499159
-0.003429976202
-0.0003074094186
0.002744806013
-0.001006587453
0.006414975697
-0.001938354782
0.008642330825
-0.002991898942
0.009792481619
-0.00410281342
0.0101788105
-0.00523744893
0.01001188119
-0.006378627949
0.00940816858
-0.007514083721
0.00841127443
-0.008627331671
0.00701741999
-0.009689844071
0.005199386159
-0.01065314225
0.002927316609
-0.01143756772
0.0001860004776
-0.0119294561
-0.002989994566
-0.01196499041
-0.006504312948
-0.01134373895
-0.01012065828
-0.009868967812
-0.01339082569
-0.007460114276
-0.01555325765
-0.00436383459
-0.01550249308
-0.001425535646
-0.0120177981
-0.004855511848
-0.0003089282497
0.003053734252
-0.0009555673945
0.007061614839
-0.001768489993
0.009455253423
-0.002639390505
0.01066338213
-0.00351826198
0.01105768198
-0.004389722542
0.01088334176
-0.005256719121
0.01027516517
-0.00612951442
0.009284069741
-0.007017706983
0.007905612562
-0.007923326521
0.006105005698
-0.008832213105
0.003836203191
-0.009704214397
0.001058001767
-0.01045072623
-0.002243482733
-0.01092411995
-0.006030919227
-0.01089502841
-0.01014974982
-0.01006488809
-0.014220966
-0.008157305508
-0.01746084024
-0.005167631653
-0.01849216694
-0.001854349002
-0.01533108075
-0.00670986085
-0.0003552700474
0.003409004292
-0.0009733331374
0.007679677929
-0.001646057389
0.01012797767
-0.002268710341
0.01128603508
-0.002816839962
0.0116058116
-0.003303693551
0.01137019536
-0.003759409936
0.01073088157
-0.0042209246
0.009745584421
-0.004726146758
0.008410834733
-0.005309762525
0.006688621472
-0.005996656459
0.004523097126
-0.006791798097
0.001853143405
-0.007660585422
-0.001374695409
-0.008503029235
-0.005188475414
-0.009113178066
-0.009539600991
-0.009142508017
-0.01419163605
-0.008128400635
-0.01847494762
-0.005711156565
-0.02090941101
-0.002318284785
-0.01872395253
-0.009028145634
-0.0005003770171
0.003909381308
-0.001151296453
0.008330597371
-0.001674820984
0.01065150221
-0.001981640269
0.01159285436
-0.002095672371
0.0117198437
-0.002075735543
0.01135025853
-0.001988477034
0.01064362307
-0.001901151127
0.009658258525
-0.001878926927
0.008388610541
-0.001985970905
0.006795665454
-0.002282466741
0.004819592962
-0.002818755526
0.002389432187
-0.00362215199
-0.0005712989473
-0.004668842689
-0.004141784717
-0.005834634783
-0.008373808897
-0.006807663593
-0.01321860724
-0.007016668747
-0.01826594246
-0.005716400992
-0.02220967876
-0.00273956708
-0.02170078644
-0.01176771271
-0.0008308853614
0.004740266673
-0.001604832831
0.009104544851
-0.00195097933
0.0109976487
-0.001839382733
0.01148125775
-0.001385434747
0.0112658957
-0.0007181315682
0.01068295535
4.821344759e-05
0.009877278052
0.0008164049442
0.00889006703
0.001495360904
0.007709654582
0.001998424445
0.006292601912
0.002238517824
0.004579499579
0.002128355185
0.002499594822
0.001583160329
-2.610409341e-05
0.0005450317516
-0.003103656143
-0.0009843144216
-0.006844462726
-0.002828401648
-0.01137452001
-0.004459125886
-0.01663521823
-0.004810489477
-0.02185831517
-0.002944290902
-0.02356698502
-0.01471200362
-0.001465682516
0.006205949198
-0.002379876632
0.01001873898
-0.00237344485
0.01099121691
-0.001603541832
0.01071135472
-0.000349626234
0.01001198009
0.001163642786
0.009169686314
0.002771842305
0.008269078527
0.004349534444
0.007312374888
0.005791624065
0.006267564958
0.006998015296
0.005086210677
0.007865493683
0.003712021188
0.008282285704
0.0020828028
0.008123822611
0.0001323589974
0.007264497105
-0.002244330638
0.005585213349
-0.005165178971
0.003073873259
-0.008863179923
7.89720701e-05
-0.01364031704
-0.002445747291
-0.01933359581
-0.002601077992
-0.02341165431
-0.01731308161
-0.002365504
0.008571453205
-0.002963808709
0.0106170437
-0.001922814026
0.009950222219
8.1115433e-05
0.008707425247
0.002534887343
0.007558208167
0.005140256038
0.006564317614
0.007719753975
0.005689580588
0.01015462197
0.004877506891
0.01234957398
0.004072612951
0.01421200277
0.003223781879
0.01564054066
0.002283483303
0.01651758939
0.001205754068
0.01669710003
-4.715164605e-05
0.01602712656
-0.00157435716
0.0143050903
-0.003443142712
0.01133283095
-0.005890920569
0.007055613845
-0.009363099936
0.00220162371
-0.01447960567
-0.001027320523
-0.02018271008
-0.01834040213
-0.002150342904
0.01072179611
-7.199466584e-05
0.008538695483
0.003741898431
0.006136329124
0.007719772856
0.004729550828
0.01156187108
0.003716109947
0.01514101068
0.002985178024
0.01839885635
0.002431734926
0.02130155576
0.001974807482
0.02381243397
0.001561734738
0.02587973511
0.001156480741
0.02743056926
0.0007326491429
0.02836472843
0.0002715948978
0.02857561767
-0.0002580408768
0.02788766541
-0.0008864049028
0.0260993414
-0.001654818703
0.02290826575
-0.002699844911
0.0179069669
-0.004361801085
0.01076690819
-0.007339546961
0.002912180383
-0.01232798228
-0.01542822175
0.01072179611
0.0192604916
0.02539682073
0.03012637157
0.03384248152
0.03682765955
0.03925939447
0.04123420195
0.04279593669
0.04395241742
0.04468506657
0.04495666146
0.04469862059
0.04381221569
0.04215739698
0.03945755207
0.03509575099
0.02775620403
0.01542822175
)
;

boundaryField
{
    movingWall
    {
        type            calculated;
        value           uniform 0;
    }
    fixedWalls
    {
        type            calculated;
        value           uniform 0;
    }
    frontAndBack
    {
        type            empty;
    }
}


// ************************************************************************* //
