/*--------------------------------*- C++ -*----------------------------------*\
  =========                 |
  \\      /  F ield         | OpenFOAM: The Open Source CFD Toolbox
   \\    /   O peration     | Website:  https://openfoam.org
    \\  /    A nd           | Version:  13
     \\/     M anipulation  |
\*---------------------------------------------------------------------------*/
FoamFile
{
    format      ascii;
    class       volVectorField;
    location    "48";
    object      U_0;
}
// * * * * * * * * * * * * * * * * * * * * * * * * * * * * * * * * * * * * * //

dimensions      [0 1 -1 0 0 0 0];

internalField   nonuniform List<vector> 
400
(
(1.10084008e-05 -3.783003382e-05 0)
(-0.0006660925143 0.0004130431146 -1.551433406e-23)
(-0.002185372827 0.0009203930502 0)
(-0.004047831379 0.001312779941 0)
(-0.005971869087 0.001535066066 6.845918345e-25)
(-0.007762785939 0.001569850262 4.150417698e-24)
(-0.009284547177 0.001423566721 -7.373529645e-24)
(-0.01043594043 0.001119724542 7.530408743e-24)
(-0.01113681102 0.0006960806994 -2.095298942e-25)
(-0.01132710867 0.0002030738199 -3.9945786e-24)
(-0.01097177262 -0.0003002368752 5.80347404e-24)
(-0.01007233063 -0.0007475174101 -5.929420283e-23)
(-0.00867988361 -0.001075561351 -6.552575925e-23)
(-0.006902854993 -0.00123304208 -7.784268866e-23)
(-0.004910737628 -0.001192636923 4.573559912e-24)
(-0.002927230102 -0.0009619202177 -4.13788827e-24)
(-0.001205297893 -0.0005912123851 -1.998715756e-22)
(-1.906860964e-05 -0.0001698837277 0)
(0.0005181532573 0.0001720853441 1.509374517e-25)
(0.0002227510026 0.0003059790752 -2.54992e-24)
(-0.0002633615863 0.0008289725957 1.382864185e-25)
(-0.002703304196 0.0033838442 1.561233417e-23)
(-0.00690727606 0.005604502284 1.555506788e-25)
(-0.01195231762 0.0070082061 -8.496183371e-25)
(-0.01713504218 0.007553774242 1.162268469e-24)
(-0.02197535469 0.007294200654 1.307026504e-23)
(-0.02611076458 0.006321898477 1.3867842e-24)
(-0.02926565234 0.004754197937 -7.282160942e-24)
(-0.03122673301 0.002737153651 1.015244717e-23)
(-0.0318420093 0.0004524038119 4.509915389e-24)
(-0.03102761176 -0.001884148729 -6.318737447e-24)
(-0.02879316396 -0.004023032674 2.961369143e-24)
(-0.02527138365 -0.005708354943 3.895468108e-23)
(-0.02073195108 -0.00670740764 -1.954731599e-24)
(-0.01558962904 -0.006854137939 3.754416741e-24)
(-0.01038513555 -0.006097463531 -9.740816948e-23)
(-0.005730272644 -0.004546187358 9.637490158e-23)
(-0.002233367095 -0.002507420365 -3.960957886e-25)
(-0.0001817752426 -0.0005023730796 4.060853966e-25)
(8.343528579e-05 0.0006099258906 0)
(-0.0004188225424 0.002935080318 -2.91026271e-25)
(-0.004647873902 0.008804017462 1.701845518e-23)
(-0.01137196166 0.01324042783 -8.285538075e-24)
(-0.01932729248 0.01579204362 -2.075488943e-25)
(-0.02747411684 0.01652999971 2.03895119e-25)
(-0.0351177867 0.01564441406 6.780367673e-27)
(-0.04171344738 0.01335997441 -1.219355368e-24)
(-0.04683571898 0.009919772624 -4.550465155e-25)
(-0.0501498931 0.005602437082 -1.06306463e-23)
(-0.05141232302 0.0007444237267 0)
(-0.05047793491 -0.004241779753 0)
(-0.04733706282 -0.008887189088 2.670977277e-23)
(-0.04215927786 -0.01268177257 2.812967449e-23)
(-0.03531437343 -0.01513605389 -1.646131243e-24)
(-0.02738996307 -0.01586189589 4.845770334e-23)
(-0.01917006033 -0.01467334084 9.419124595e-23)
(-0.01156090901 -0.0116936029 3.975567852e-23)
(-0.005465413351 -0.007450742502 4.141516441e-25)
(-0.001451100026 -0.002936043212 1.073953767e-25)
(-9.072723151e-05 0.0002258771964 0)
(-0.0005024620923 0.006045350299 -4.248801934e-23)
(-0.006402738178 0.01637075583 -1.692068956e-23)
(-0.01553502458 0.02355933846 8.212372109e-24)
(-0.02627912308 0.02744163092 0)
(-0.03728747068 0.02832102613 0)
(-0.04769037657 0.02658772697 0)
(-0.05679663038 0.02263120209 -4.465258323e-26)
(-0.06405384028 0.0168360907 -2.137020369e-24)
(-0.06901081663 0.009622182777 0)
(-0.07130828205 0.001491050624 1.635312197e-24)
(-0.07070853916 -0.006936502613 2.802714629e-25)
(-0.06713039745 -0.01493018811 -2.810562164e-25)
(-0.06069905751 -0.02166728304 0)
(-0.05180750518 -0.02631606016 4.133211232e-23)
(-0.04114991626 -0.02816071113 -4.681486276e-23)
(-0.02971970251 -0.02677372361 -2.761861486e-23)
(-0.01873716801 -0.02221530539 -3.960712404e-23)
(-0.009488029998 -0.01521922149 7.795901664e-25)
(-0.00297688087 -0.007298194109 9.790488422e-23)
(-0.000231879835 -0.0008661677787 0)
(-0.0005316129412 0.01009501789 4.269461947e-23)
(-0.007983592068 0.02595219618 4.785502699e-25)
(-0.01939687361 0.03642882891 -4.676203382e-25)
(-0.03282382519 0.04185520953 0)
(-0.04664689293 0.0428948568 7.78313011e-25)
(-0.05985230064 0.0402007453 -7.67521418e-25)
(-0.07163291715 0.03434741998 3.672318355e-23)
(-0.08132751458 0.02585664159 1.84823547e-23)
(-0.08836601231 0.01527298247 6.23892515e-24)
(-0.09225469735 0.00324614577 -1.637217358e-24)
(-0.09260380067 -0.009407833325 0)
(-0.08917555834 -0.02167478071 4.370496747e-25)
(-0.08195979506 -0.03236745147 1.008970619e-23)
(-0.07126885548 -0.04021250332 -4.349239069e-23)
(-0.05782018812 -0.04402046614 1.932857992e-24)
(-0.04278582949 -0.04294829639 4.21712329e-23)
(-0.02775450376 -0.03683347127 -3.841544931e-25)
(-0.01455062411 -0.02652721064 0)
(-0.004859463034 -0.01408454495 5.436553177e-23)
(-0.0003641483987 -0.0028469534 -2.565092154e-22)
(-0.0005272218943 0.01499927988 9.841691502e-23)
(-0.009377926695 0.03739022659 -4.907830251e-25)
(-0.02288182786 0.0517022324 0)
(-0.03883043524 0.05894183277 0)
(-0.05538656895 0.06025574825 -8.732176813e-23)
(-0.07142876967 0.05661901374 -8.499157359e-23)
(-0.08606654556 0.0488016913 -4.067576993e-23)
(-0.0985508641 0.03743980788 -1.504375613e-23)
(-0.1081945348 0.02315984071 -5.368958309e-24)
(-0.1143444761 0.006709678806 -8.175017623e-24)
(-0.1164046239 -0.0109329229 6.60116631e-24)
(-0.113893743 -0.02848945196 8.826818572e-24)
(-0.1065487007 -0.04437046405 -1.892320651e-23)
(-0.09446804234 -0.05675333942 4.608316637e-24)
(-0.07826856986 -0.06378298901 0)
(-0.05922895459 -0.06393495693 -1.572808756e-23)
(-0.03933981916 -0.05653816524 -2.430978725e-26)
(-0.02114188838 -0.04235809276 0)
(-0.00731870298 -0.02398229476 -1.520660681e-22)
(-0.0005216164803 -0.005925545266 6.056297741e-22)
(-0.0004990827945 0.02064574635 -9.774642522e-23)
(-0.01052951141 0.05045438577 2.831999569e-22)
(-0.02582957641 0.06912512179 1.526865958e-22)
(-0.04402138454 0.07849258284 3.619291396e-24)
(-0.06310739301 0.08029476661 -7.319331661e-23)
(-0.08190405255 0.07588043105 9.043617709e-23)
(-0.09947763933 0.06621690891 -3.590237553e-24)
(-0.115022741 0.05201695262 -1.729179211e-24)
(-0.1277519217 0.03392358642 2.524172821e-24)
(-0.1368472638 0.01270233252 7.382649664e-24)
(-0.1414710555 -0.01058782372 -6.500909812e-24)
(-0.140824821 -0.03446024502 -9.788253181e-24)
(-0.1342745992 -0.0569277189 -3.261723546e-23)
(-0.1215450258 -0.07553316426 -3.661593627e-23)
(-0.1029672671 -0.08754260792 5.64617293e-25)
(-0.07976369987 -0.09039209903 0)
(-0.05426682525 -0.08244513958 0)
(-0.02987160953 -0.06397737015 -2.906085964e-24)
(-0.01066285146 -0.03798794812 2.970535666e-24)
(-0.0007350936123 -0.01050089532 1.027872505e-22)
(-0.0004479162116 0.02687251083 0)
(-0.0113492324 0.06480757743 2.00198191e-22)
(-0.02801599852 0.08829617683 8.962074113e-23)
(-0.04799857574 0.1001234995 0)
(-0.06920602217 0.1027076594 1.569888555e-22)
(-0.090443734 0.097815789 0)
(-0.1107831703 0.08661103222 -1.428392794e-22)
(-0.1294093792 0.06983950502 6.515585954e-24)
(-0.1454771673 0.04808232313 0)
(-0.1580351858 0.02201755651 0)
(-0.1660133502 -0.007334439613 -1.37441521e-24)
(-0.16826716 -0.03838839799 -9.316822685e-25)
(-0.1637064733 -0.06883975999 1.491986528e-22)
(-0.151520879 -0.09558275952 -4.704623563e-23)
(-0.1315134577 -0.1148298681 -2.560995601e-24)
(-0.1045596092 -0.1225703434 1.534753561e-24)
(-0.07309349994 -0.1155517987 -1.558963195e-24)
(-0.04135021534 -0.09283115742 0)
(-0.01525230285 -0.05740767752 3.20382456e-24)
(-0.001044309036 -0.01714714521 -1.012917305e-21)
(-0.0003744659174 0.03346304557 0)
(-0.01175005993 0.07998918862 -1.128302425e-22)
(-0.02920707965 0.1086390974 -6.191167912e-22)
(-0.05031745187 0.1232234035 -3.755315695e-22)
(-0.07296317679 0.126909708 0)
(-0.09598960441 0.1219255677 4.119465109e-22)
(-0.1185273507 0.1096348668 1.260928923e-22)
(-0.1398146446 0.09078246018 -5.581848719e-24)
(-0.1590221584 0.06581393238 5.554221567e-24)
(-0.1751461045 0.03520881124 0)
(-0.1869560033 -0.0001967472736 2.912135391e-23)
(-0.1930172698 -0.03889754396 4.695849518e-24)
(-0.1917809959 -0.07843888647 -1.076812187e-22)
(-0.1817874474 -0.1151865396 8.004247156e-23)
(-0.1620570465 -0.1442599489 -2.419753741e-22)
(-0.1327062023 -0.1598548656 0)
(-0.09577888315 -0.1563112912 0)
(-0.05601633141 -0.1302981104 0)
(-0.02147859162 -0.08381135237 0)
(-0.001500384597 -0.02665516336 5.572132586e-22)
(-0.0002873898758 0.04016077917 0)
(-0.01169359601 0.09543611751 -3.493023831e-22)
(-0.02924438255 0.1294073657 8.93281635e-22)
(-0.05060947323 0.1469299206 3.617187747e-22)
(-0.07370082767 0.1519748714 0)
(-0.09745151287 0.1472757999 -3.862562413e-22)
(-0.1211069852 0.1344191978 -3.17443576e-23)
(-0.1440324801 0.1141393337 3.3331098e-22)
(-0.1655143253 0.08670006704 1.769477131e-22)
(-0.1846248545 0.05229123502 -4.060156929e-23)
(-0.200132584 0.01141716135 1.656822077e-23)
(-0.2104622476 -0.03471424254 -8.265260268e-24)
(-0.2137208561 -0.08376563764 3.371862487e-22)
(-0.2078215528 -0.1318756369 0)
(-0.1908238559 -0.1732756164 2.420922771e-22)
(-0.1616335756 -0.2002593424 5.774801547e-24)
(-0.1211662703 -0.2040121737 -5.86092092e-24)
(-0.0738498988 -0.1772119979 1.548456417e-22)
(-0.0297178686 -0.1188642341 -5.435486377e-24)
(-0.002179545158 -0.04005398781 0)
(-0.0002117202135 0.04671640182 0)
(-0.01125001117 0.1105498159 0)
(-0.02815624424 0.149735504 -5.022764425e-22)
(-0.04874479267 0.1701517642 -1.881000219e-23)
(-0.07100086642 0.1766257186 2.038381399e-23)
(-0.09399451533 0.1724526548 -2.014313864e-23)
(-0.1171434303 0.1594871016 -2.31688654e-23)
(-0.1400179504 0.1384805101 -3.029827908e-22)
(-0.1621328889 0.1095160724 6.698614793e-23)
(-0.1827959036 0.07245186961 4.513183455e-23)
(-0.2009835559 0.02734928761 -4.577726006e-23)
(-0.2152270269 -0.02508697903 0)
(-0.2235562221 -0.08298351547 -7.839701097e-23)
(-0.2234632207 -0.1427257355 0)
(-0.2120679443 -0.1981820909 -3.739566866e-22)
(-0.186743456 -0.2400773727 5.244963028e-22)
(-0.1464438314 -0.2560773445 0)
(-0.093945678 -0.2331209533 -1.494002247e-22)
(-0.04022001027 -0.1639613679 1.937559035e-22)
(-0.003201100297 -0.05861063201 -3.4115386e-22)
(-0.0002015410908 0.05297585187 0)
(-0.0106726189 0.1248172418 9.182881121e-22)
(-0.02628446653 0.1687424622 -2.44068841e-23)
(-0.04501107758 0.1916455182 9.193347641e-22)
(-0.0649459745 0.1992921093 -2.512089009e-23)
(-0.08536628504 0.1956104352 2.838847364e-23)
(-0.1059305645 0.182788687 -2.812933395e-23)
(-0.126492418 0.1616583526 -1.660919626e-23)
(-0.1468996835 0.1321762306 -5.260234078e-22)
(-0.1668458143 0.09389646598 -8.906636707e-24)
(-0.1857303011 0.04640576185 9.66020406e-24)
(-0.2024781675 -0.01023784919 3.313080236e-22)
(-0.2154154605 -0.07499820552 -5.820744933e-22)
(-0.2220209711 -0.1450311864 0)
(-0.2188032102 -0.2146760647 8.887332976e-22)
(-0.2016257526 -0.2740016455 -4.940895129e-22)
(-0.1668639196 -0.3075811991 -1.572225915e-23)
(-0.1140220098 -0.2953811943 0)
(-0.05288482045 -0.21958026 -1.890192589e-22)
(-0.00474918819 -0.08377278031 3.360596226e-22)
(-0.0003641984198 0.05902317795 1.551012153e-23)
(-0.01049573906 0.1379881521 -8.764208271e-22)
(-0.02441389488 0.1856804137 -1.157060274e-21)
(-0.04026724362 0.2101384791 -8.628995992e-22)
(-0.05630729516 0.2182348948 0)
(-0.07214856439 0.2146190302 3.513808636e-23)
(-0.08779221492 0.2018791982 -7.294873292e-23)
(-0.1034562775 0.1810005629 5.867889771e-23)
(-0.1193983853 0.1518997251 3.021369483e-22)
(-0.1357931524 0.1139150568 -1.128196635e-23)
(-0.1526082298 0.06621424864 0)
(-0.1694521355 0.008177202035 -3.603932545e-22)
(-0.185276058 -0.06015987868 7.515673613e-22)
(-0.1980448504 -0.1372747031 8.83171005e-22)
(-0.2043546255 -0.2189261909 -5.296632278e-22)
(-0.1990977608 -0.2959712937 5.162694695e-22)
(-0.1760605329 -0.3514072616 1.078235682e-23)
(-0.1300890633 -0.3584150811 -1.095550767e-23)
(-0.06688803323 -0.2843276533 -8.215243743e-23)
(-0.007083319969 -0.1169964426 0)
(-0.0009095774323 0.06540041571 -1.911488593e-23)
(-0.01167591647 0.1502816422 -1.326966659e-21)
(-0.02388881967 0.2000659584 1.094238596e-21)
(-0.03601340318 0.2244217 6.734935762e-22)
(-0.04657308603 0.2316588276 6.014636378e-22)
(-0.05577038305 0.2272393724 6.643961747e-22)
(-0.0641124551 0.2141774899 -4.458680924e-23)
(-0.07227561376 0.19364944 -3.46133947e-22)
(-0.08096972651 0.1656028328 2.152163805e-22)
(-0.09087191998 0.1292707357 0)
(-0.102554742 0.0835308242 0)
(-0.1163622125 0.02720010622 2.655398333e-22)
(-0.132158953 -0.04062006137 8.194326225e-23)
(-0.1489252293 -0.1200128321 -2.821625844e-22)
(-0.1641284261 -0.2089300703 -5.41127503e-23)
(-0.1727877605 -0.300699252 1.301952281e-22)
(-0.1670311297 -0.3793329118 -3.400509516e-22)
(-0.1365292436 -0.4136451987 -1.593806193e-23)
(-0.08018250141 -0.3538326219 8.204016521e-23)
(-0.01050762296 -0.1594130576 -6.032153507e-22)
(-0.002260498413 0.07348883543 0)
(-0.01580355592 0.1626521778 2.14587619e-21)
(-0.02665042449 0.2117904751 0)
(-0.03422339487 0.2333947296 -1.351809019e-21)
(-0.03759398369 0.2377766853 6.184060383e-23)
(-0.03799685064 0.2312553546 -6.193099079e-22)
(-0.03668265656 0.2171899027 -4.756287177e-22)
(-0.03489036067 0.1968934505 8.301259921e-22)
(-0.03378837637 0.1703342392 -1.88569924e-22)
(-0.03449876174 0.136722108 0)
(-0.03811572461 0.09479673619 0)
(-0.04564992193 0.04304286548 2.410615526e-23)
(-0.05790804086 -0.02013781281 -6.007201583e-22)
(-0.07514598357 -0.09620650266 -4.309569304e-22)
(-0.09645174835 -0.1855556178 4.637864952e-22)
(-0.1183462605 -0.2853567777 -6.488740236e-22)
(-0.1332715375 -0.3838386542 9.119949243e-23)
(-0.1265350984 -0.4504358723 2.937288999e-23)
(-0.08899154076 -0.4198536385 5.660441492e-22)
(-0.01526917933 -0.2111719736 6.020786261e-22)
(-0.005180899704 0.08598045977 0)
(-0.02525550684 0.1766291197 1.465579561e-22)
(-0.03483407861 0.2205961559 -4.91714773e-23)
(-0.03640013714 0.2354859358 7.642936101e-22)
(-0.03018482896 0.2343406768 -7.005382852e-22)
(-0.0191657925 0.22416039 4.746483567e-23)
(-0.005615147795 0.2083525859 -1.018610472e-22)
(0.00856961071 0.1881241098 -3.389890376e-22)
(0.02179886475 0.1633911276 2.062823674e-22)
(0.03262781747 0.1333242734 0)
(0.039584588 0.09664086171 0)
(0.04117013474 0.05174056409 -2.902668921e-22)
(0.03578484024 -0.003255398246 0)
(0.02198184872 -0.07058360885 -5.51218931e-22)
(-0.001264844307 -0.1525735511 -1.492377595e-23)
(-0.03310469731 -0.250594985 2.559743099e-23)
(-0.069092357 -0.359934152 2.203146091e-22)
(-0.0922782693 -0.4575424531 4.788068371e-24)
(-0.08718089896 -0.469812942 -5.789409771e-22)
(-0.02103127147 -0.2698972299 0)
(-0.01111631558 0.1085974973 0)
(-0.04248901877 0.1947151684 -8.848483386e-22)
(-0.0479552888 0.2258195515 -5.41104213e-22)
(-0.03919535801 0.2282135556 4.543819135e-22)
(-0.01877830118 0.2182328137 -1.709981551e-24)
(0.007664315715 0.2028220361 -4.561052776e-23)
(0.03667993596 0.1847619777 5.696685229e-22)
(0.0658299881 0.1647118223 -2.76689171e-23)
(0.09327131133 0.1423128184 -2.069782554e-22)
(0.117389163 0.116627494 3.142214797e-23)
(0.1365461707 0.08641143873 -3.425918461e-23)
(0.1489669285 0.05017668991 -3.690595469e-23)
(0.1525275795 0.006159166478 3.205634749e-22)
(0.1449367044 -0.04796127069 6.119608731e-22)
(0.1235159801 -0.1153052912 -5.101174017e-22)
(0.08633533517 -0.2004195651 -1.616060091e-22)
(0.0319908936 -0.3067806592 1.531306214e-22)
(-0.02362123109 -0.4239837146 7.293651047e-23)
(-0.06492413036 -0.4871612791 1.913291409e-21)
(-0.02509971702 -0.3291544745 2.954991231e-21)
(-0.02004680434 0.1460727398 -4.390209208e-23)
(-0.06416406242 0.2112955862 4.417381968e-23)
(-0.05070230619 0.217730049 1.000189029e-21)
(-0.0193409732 0.2014679991 -8.270557763e-24)
(0.02414465054 0.1809076181 0)
(0.0715412223 0.1606933349 4.363725045e-23)
(0.1190703425 0.1416495496 -2.273853359e-22)
(0.1644767351 0.1233181824 -9.027962709e-23)
(0.2062251178 0.1048117296 3.680736687e-23)
(0.2429643041 0.08507140088 -1.701655617e-23)
(0.2732207596 0.06296147658 3.429971771e-23)
(0.2952536124 0.03726293787 -6.592684023e-23)
(0.3066971074 0.006535067737 -9.303908782e-23)
(0.3049738324 -0.03087770086 1.517044939e-22)
(0.2863936259 -0.07786290999 0)
(0.2470568092 -0.1399300371 1.505613328e-22)
(0.1810922241 -0.2266299753 2.560013766e-22)
(0.09604450283 -0.3443894948 0)
(-0.006697615716 -0.4552210219 -3.67563449e-21)
(-0.019224082 -0.3777537589 -2.892620712e-21)
(-0.02591951264 0.2276828791 -9.514204988e-22)
(-0.03998324554 0.2238216518 -1.388976915e-22)
(0.03656136865 0.1810585359 -2.33558321e-22)
(0.1090503041 0.1451059095 -1.193742649e-22)
(0.1817191195 0.1172445499 -4.295829192e-23)
(0.2490090741 0.09627907653 9.78319071e-23)
(0.3100336716 0.08002510429 -1.408593455e-22)
(0.3646209349 0.06656815346 1.297176229e-22)
(0.4126252511 0.05449178898 -8.620125969e-23)
(0.4536250316 0.04270894924 1.132187881e-25)
(0.4867878739 0.03032298407 1.527742531e-23)
(0.5107451379 0.01652901836 7.997208799e-23)
(0.5236597469 0.0005365140757 -1.811124744e-22)
(0.5231798024 -0.01863373277 -1.617147076e-22)
(0.5052323428 -0.04286478978 -4.262959323e-23)
(0.4658715087 -0.07633231198 0)
(0.3952696502 -0.1286089384 -1.846476506e-22)
(0.291607105 -0.2208468098 8.148762512e-22)
(0.1197455107 -0.3525016903 1.631601437e-21)
(0.02670547262 -0.3775497979 2.17265584e-21)
(0.2142894471 0.1347447203 9.864990063e-22)
(0.2776311189 0.09870503467 0)
(0.4316592292 0.05810414762 -2.594322048e-22)
(0.5304749347 0.03846264927 -1.741667805e-22)
(0.6016965753 0.02623419113 0)
(0.6571198963 0.01831923479 -6.009098249e-23)
(0.701521361 0.01313600849 6.378007882e-23)
(0.7376042508 0.009542126333 -1.800158163e-23)
(0.7669368425 0.006804463558 2.885976582e-23)
(0.7902106692 0.004464743815 2.315034769e-23)
(0.8074555016 0.002221319744 0)
(0.818262136 -0.0001500750988 -2.873034449e-23)
(0.8216499719 -0.002723848393 0)
(0.8162394199 -0.00571266873 2.738153538e-23)
(0.7991333149 -0.009611382867 1.421694276e-23)
(0.7679986346 -0.01500255107 -5.799401388e-23)
(0.7106555755 -0.02502519952 -2.535660406e-22)
(0.623518398 -0.04204285406 -6.918101042e-22)
(0.423009102 -0.09182968079 0)
(0.2705674689 -0.1524021841 -2.119483707e-21)
)
;

boundaryField
{
    movingWall
    {
        type            calculated;
        value           uniform (1 0 0);
    }
    fixedWalls
    {
        type            calculated;
        value           uniform (0 0 0);
    }
    frontAndBack
    {
        type            empty;
    }
}


// ************************************************************************* //
