/*--------------------------------*- C++ -*----------------------------------*\
  =========                 |
  \\      /  F ield         | OpenFOAM: The Open Source CFD Toolbox
   \\    /   O peration     | Website:  https://openfoam.org
    \\  /    A nd           | Version:  13
     \\/     M anipulation  |
\*---------------------------------------------------------------------------*/
FoamFile
{
    format      ascii;
    class       vectorField;
    location    "48";
    object      U_all;
}
// * * * * * * * * * * * * * * * * * * * * * * * * * * * * * * * * * * * * * //


400
(
(1.100844648e-05 -3.783008416e-05 0)
(-0.0006660924727 0.0004130431305 -1.551450283e-23)
(-0.002185373309 0.0009203936495 0)
(-0.004047831916 0.001312780789 0)
(-0.005971868287 0.001535065877 6.845841194e-25)
(-0.00776278406 0.001569848462 4.151471131e-24)
(-0.009284546154 0.001423564459 -7.375170347e-24)
(-0.01043594179 0.001119723799 7.529110952e-24)
(-0.01113681413 0.000696082407 -2.095350109e-25)
(-0.01132711116 0.0002030769486 -3.994540913e-24)
(-0.01097177273 -0.0003002342137 5.803581198e-24)
(-0.01007232845 -0.0007475166266 -5.929582723e-23)
(-0.008679880692 -0.001075562457 -6.552669244e-23)
(-0.006902853249 -0.001233043892 -7.784157123e-23)
(-0.004910737824 -0.001192638165 4.573490557e-24)
(-0.002927231407 -0.0009619204562 -4.137849168e-24)
(-0.001205298865 -0.0005912120487 -1.998715436e-22)
(-1.906857371e-05 -0.0001698834115 0)
(0.0005181537412 0.0001720853265 1.509418101e-25)
(0.0002227511861 0.0003059790431 -2.550435592e-24)
(-0.0002633615254 0.0008289724513 1.382862879e-25)
(-0.002703303621 0.003383843517 1.561249762e-23)
(-0.006907275674 0.005604502339 1.555644814e-25)
(-0.01195231882 0.007008207729 -8.496020438e-25)
(-0.01713504409 0.007553776007 1.162206564e-24)
(-0.02197535513 0.007294200358 1.306944285e-23)
(-0.02611076256 0.006321895723 1.388235423e-24)
(-0.02926564933 0.004754194777 -7.280825114e-24)
(-0.03122673161 0.002737152695 1.015209459e-23)
(-0.03184201052 0.0004524057442 4.509863217e-24)
(-0.03102761452 -0.001884145374 -6.318848944e-24)
(-0.0287931663 -0.004023030093 2.962144806e-24)
(-0.02527138398 -0.005708354567 3.895531653e-23)
(-0.02073194957 -0.006707409172 -1.954754875e-24)
(-0.01558962723 -0.006854139921 3.754437026e-24)
(-0.01038513475 -0.006097464738 -9.740805078e-23)
(-0.005730272788 -0.004546187638 9.637447831e-23)
(-0.00223336743 -0.002507420263 -3.96084131e-25)
(-0.0001817752551 -0.000502373018 4.060734173e-25)
(8.343547767e-05 0.0006099257872 0)
(-0.0004188228615 0.002935080798 -2.910331933e-25)
(-0.004647873857 0.008804016874 1.701983436e-23)
(-0.01137196031 0.01324042614 -8.284452541e-24)
(-0.01932729152 0.01579204286 -2.075896155e-25)
(-0.02747411767 0.01653000128 2.039350611e-25)
(-0.03511778886 0.01564441702 6.80683782e-27)
(-0.041713449 0.01335997627 -1.22068099e-24)
(-0.04683571856 0.009919771712 -4.551559926e-25)
(-0.05014989107 0.005602434136 -1.063025021e-23)
(-0.05141232096 0.0007444210897 0)
(-0.05047793416 -0.004241780646 0)
(-0.04733706377 -0.008887187883 2.670966708e-23)
(-0.04215927961 -0.01268177053 2.813004352e-23)
(-0.03531437462 -0.01513605265 -1.646153548e-24)
(-0.0273899631 -0.01586189612 4.845827566e-23)
(-0.01917005963 -0.01467334198 9.41911469e-23)
(-0.01156090824 -0.01169360401 3.975587106e-23)
(-0.005465412709 -0.007450743103 4.141312126e-25)
(-0.001451099733 -0.002936043299 1.07407751e-25)
(-9.072711889e-05 0.0002258770438 0)
(-0.0005024627327 0.006045351084 -4.24867079e-23)
(-0.006402739349 0.01637075713 -1.692207965e-23)
(-0.01553502454 0.02355933806 8.211306296e-24)
(-0.02627912166 0.02744162888 0)
(-0.03728746925 0.02832102431 0)
(-0.04769037651 0.02658772713 0)
(-0.05679663182 0.0226312042 -4.464611076e-26)
(-0.06405384194 0.01683609306 -2.137127943e-24)
(-0.06901081709 0.009622183653 0)
(-0.0713082812 0.001491049805 1.635386665e-24)
(-0.07070853774 -0.006936504285 2.802692298e-25)
(-0.06713039641 -0.0149301893 -2.810539765e-25)
(-0.06069905773 -0.02166728299 0)
(-0.0518075064 -0.02631605926 4.133180275e-23)
(-0.04114991747 -0.0281607103 -4.681541277e-23)
(-0.02971970293 -0.0267737234 -2.761900242e-23)
(-0.01873716757 -0.02221530563 -3.960729994e-23)
(-0.009488029116 -0.0152192218 7.795978642e-25)
(-0.002976880293 -0.007298194323 9.790501138e-23)
(-0.00023187969 -0.0008661679379 0)
(-0.0005316130734 0.01009501721 4.269331146e-23)
(-0.007983592724 0.02595219747 4.785562251e-25)
(-0.01939687494 0.03642883068 -4.676261452e-25)
(-0.03282382555 0.04185520998 0)
(-0.04664689204 0.0428948555 7.783027905e-25)
(-0.05985229935 0.04020074341 -7.675113511e-25)
(-0.07163291665 0.03434741904 3.672348848e-23)
(-0.08132751524 0.02585664216 1.848276496e-23)
(-0.08836601342 0.01527298379 6.239019719e-24)
(-0.09225469799 0.003246146688 -1.63729192e-24)
(-0.0926038004 -0.009407833242 0)
(-0.08917555741 -0.02167478137 4.370498558e-25)
(-0.08195979434 -0.03236745212 1.008967998e-23)
(-0.07126885564 -0.04021250335 -4.349206584e-23)
(-0.05782018899 -0.04402046554 1.932853473e-24)
(-0.04278583032 -0.0429482956 4.217173853e-23)
(-0.02775450394 -0.0368334707 -3.84163278e-25)
(-0.01455062365 -0.02652721041 0)
(-0.00485946257 -0.01408454504 5.436526634e-23)
(-0.0003641482713 -0.002846953492 -2.565090484e-22)
(-0.0005272213149 0.01499927846 9.841572984e-23)
(-0.009377925838 0.03739022563 -4.90788371e-25)
(-0.02288182839 0.05170223316 0)
(-0.03883043632 0.05894183437 0)
(-0.05538656956 0.06025574928 -8.732155258e-23)
(-0.07142876938 0.05661901347 -8.499103804e-23)
(-0.08606654479 0.04880169015 -4.067608775e-23)
(-0.09855086359 0.03743980689 -1.504405159e-23)
(-0.1081945348 0.02315984052 -5.369038526e-24)
(-0.1143444765 0.006709679293 -8.175058796e-24)
(-0.1164046242 -0.01093292223 6.601188463e-24)
(-0.1138937429 -0.02848945165 8.826821881e-24)
(-0.1065487002 -0.04437046418 -1.89231659e-23)
(-0.09446804208 -0.05675333962 4.608311232e-24)
(-0.07826857008 -0.06378298887 0)
(-0.05922895509 -0.0639349564 -1.572821441e-23)
(-0.03933981953 -0.05653816458 -2.43075075e-26)
(-0.02114188839 -0.04235809232 0)
(-0.007318702834 -0.02398229469 -1.520659326e-22)
(-0.0005216164316 -0.005925545263 6.05629553e-22)
(-0.0004990823296 0.02064574645 -9.774523724e-23)
(-0.01052951045 0.05045438437 2.831988642e-22)
(-0.02582957566 0.0691251207 1.526867086e-22)
(-0.04402138464 0.07849258293 3.619307988e-24)
(-0.0631073937 0.08029476762 -7.319395013e-23)
(-0.08190405319 0.07588043205 9.04356112e-23)
(-0.09947763952 0.06621690918 -3.590223908e-24)
(-0.1150227408 0.05201695216 -1.729176409e-24)
(-0.1277519213 0.03392358571 2.524171226e-24)
(-0.1368472635 0.01270233205 7.382689702e-24)
(-0.1414710554 -0.01058782376 -6.500932638e-24)
(-0.1408248209 -0.03446024483 -9.788257796e-24)
(-0.1342745991 -0.05692771878 -3.261732671e-23)
(-0.1215450257 -0.07553316432 -3.661595642e-23)
(-0.1029672671 -0.087542608 5.646165832e-25)
(-0.07976370001 -0.09039209894 0)
(-0.05426682547 -0.08244513932 0)
(-0.0298716097 -0.06397736989 -2.906085261e-24)
(-0.01066285154 -0.03798794802 2.970534946e-24)
(-0.0007350936349 -0.01050089528 1.027873521e-22)
(-0.0004479163812 0.02687251205 0)
(-0.01134923256 0.06480757765 2.001983514e-22)
(-0.02801599783 0.08829617601 8.962023758e-23)
(-0.04799857505 0.1001234986 0)
(-0.06920602199 0.1027076591 1.569892572e-22)
(-0.09044373437 0.09781578951 0)
(-0.1107831709 0.08661103295 -1.428392961e-22)
(-0.1294093797 0.06983950544 6.515579232e-24)
(-0.1454771674 0.04808232306 0)
(-0.1580351855 0.02201755607 0)
(-0.1660133497 -0.007334440122 -1.374416823e-24)
(-0.1682671596 -0.03838839836 -9.316845937e-25)
(-0.1637064731 -0.06883976022 1.491988295e-22)
(-0.151520879 -0.0955827597 -4.704628525e-23)
(-0.1315134577 -0.1148298683 -2.560998293e-24)
(-0.1045596092 -0.1225703436 1.534754155e-24)
(-0.07309349998 -0.1155517988 -1.5589638e-24)
(-0.04135021543 -0.09283115744 0)
(-0.01525230294 -0.05740767753 3.203825138e-24)
(-0.001044309068 -0.01714714521 -1.012917444e-21)
(-0.0003744662972 0.033463046 0)
(-0.01175006061 0.0799891896 -1.128292015e-22)
(-0.0292070798 0.1086390978 -6.191161699e-22)
(-0.05031745143 0.1232234031 -3.755313243e-22)
(-0.07296317621 0.1269097074 0)
(-0.09598960418 0.1219255674 4.119466527e-22)
(-0.118527351 0.109634867 1.260929086e-22)
(-0.1398146452 0.09078246063 -5.581846875e-24)
(-0.1590221589 0.06581393274 5.554219733e-24)
(-0.1751461047 0.0352088113 0)
(-0.1869560031 -0.0001967475378 2.912134508e-23)
(-0.1930172695 -0.03889754441 4.695851278e-24)
(-0.1917809956 -0.07843888694 -1.076813227e-22)
(-0.1817874473 -0.11518654 8.004254992e-23)
(-0.1620570465 -0.1442599492 -2.419754804e-22)
(-0.1327062023 -0.1598548658 0)
(-0.09577888312 -0.1563112914 0)
(-0.05601633139 -0.1302981106 0)
(-0.02147859163 -0.08381135246 0)
(-0.0015003846 -0.02665516342 5.572133499e-22)
(-0.0002873899248 0.04016077857 0)
(-0.01169359624 0.09543611776 -3.493025058e-22)
(-0.02924438302 0.1294073663 8.932815722e-22)
(-0.05060947333 0.1469299208 3.617185322e-22)
(-0.07370082735 0.1519748713 0)
(-0.09745151249 0.1472757996 -3.862563744e-22)
(-0.1211069851 0.1344191977 -3.174436136e-23)
(-0.1440324804 0.1141393338 3.333109973e-22)
(-0.1655143258 0.08670006733 1.769477012e-22)
(-0.1846248549 0.05229123532 -4.060156222e-23)
(-0.2001325842 0.0114171615 1.656822023e-23)
(-0.2104622475 -0.03471424262 -8.265259462e-24)
(-0.2137208559 -0.08376563789 3.371862301e-22)
(-0.2078215525 -0.1318756372 0)
(-0.1908238558 -0.1732756166 2.420923835e-22)
(-0.1616335755 -0.2002593426 5.774802735e-24)
(-0.1211662703 -0.2040121739 -5.860922128e-24)
(-0.07384989874 -0.1772119981 1.548456534e-22)
(-0.02971786855 -0.1188642342 -5.435487118e-24)
(-0.002179545136 -0.0400539879 0)
(-0.0002117199972 0.04671640132 0)
(-0.01125001089 0.1105498154 0)
(-0.02815624442 0.149735504 -5.022765958e-22)
(-0.0487447929 0.1701517644 -1.881000809e-23)
(-0.07100086638 0.1766257187 2.03838117e-23)
(-0.09399451507 0.1724526547 -2.014313638e-23)
(-0.1171434301 0.1594871015 -2.316886542e-23)
(-0.1400179505 0.1384805101 -3.029828058e-22)
(-0.1621328892 0.1095160726 6.698615608e-23)
(-0.1827959039 0.07245186992 4.513182664e-23)
(-0.2009835561 0.02734928795 -4.577725066e-23)
(-0.215227027 -0.02508697876 0)
(-0.223556222 -0.08298351535 -7.839701019e-23)
(-0.2234632206 -0.1427257355 0)
(-0.2120679442 -0.198182091 -3.739566982e-22)
(-0.1867434559 -0.2400773728 5.244963352e-22)
(-0.1464438313 -0.2560773445 0)
(-0.09394567793 -0.2331209534 -1.494002357e-22)
(-0.04022001021 -0.163961368 1.937559161e-22)
(-0.00320110027 -0.05861063208 -3.411538724e-22)
(-0.0002015409746 0.05297585203 0)
(-0.0106726187 0.1248172415 9.182879051e-22)
(-0.02628446644 0.1687424618 -2.440688357e-23)
(-0.04501107763 0.1916455181 9.193349114e-22)
(-0.0649459745 0.1992921093 -2.512089427e-23)
(-0.08536628487 0.1956104351 2.838847396e-23)
(-0.1059305643 0.1827886869 -2.812933426e-23)
(-0.126492418 0.1616583525 -1.660919667e-23)
(-0.1468996837 0.1321762308 -5.260234165e-22)
(-0.1668458145 0.09389646628 -8.906636495e-24)
(-0.1857303013 0.04640576221 9.660203316e-24)
(-0.2024781676 -0.01023784882 3.313080094e-22)
(-0.2154154605 -0.07499820521 -5.82074465e-22)
(-0.2220209711 -0.1450311862 0)
(-0.2188032102 -0.2146760646 8.887333103e-22)
(-0.2016257526 -0.2740016455 -4.940895434e-22)
(-0.1668639196 -0.307581199 -1.572225991e-23)
(-0.1140220098 -0.2953811943 0)
(-0.05288482041 -0.2195802601 -1.890192712e-22)
(-0.004749188172 -0.08377278032 3.360596347e-22)
(-0.0003641985305 0.05902317838 1.551011858e-23)
(-0.01049573926 0.1379881523 -8.764206235e-22)
(-0.02441389485 0.1856804134 -1.157060115e-21)
(-0.04026724351 0.2101384789 -8.628997424e-22)
(-0.05630729509 0.2182348948 0)
(-0.07214856427 0.2146190302 3.513808798e-23)
(-0.0877922147 0.2018791981 -7.294873681e-23)
(-0.1034562773 0.1810005627 5.867890155e-23)
(-0.1193983852 0.151899725 3.021369608e-22)
(-0.1357931525 0.113915057 -1.128196694e-23)
(-0.1526082299 0.06621424889 0)
(-0.1694521356 0.008177202324 -3.603932383e-22)
(-0.1852760581 -0.06015987841 7.515673461e-22)
(-0.1980448505 -0.1372747029 8.83170999e-22)
(-0.2043546256 -0.2189261908 -5.2966323e-22)
(-0.1990977608 -0.2959712936 5.162694729e-22)
(-0.1760605329 -0.3514072615 1.07823574e-23)
(-0.1300890633 -0.358415081 -1.095550826e-23)
(-0.06688803322 -0.2843276532 -8.215242621e-23)
(-0.007083319963 -0.1169964426 0)
(-0.0009095776117 0.06540041594 -1.911488608e-23)
(-0.01167591691 0.1502816426 -1.326966695e-21)
(-0.02388881989 0.2000659585 1.094238442e-21)
(-0.03601340301 0.2244216998 6.734935002e-22)
(-0.04657308583 0.2316588276 6.014636635e-22)
(-0.05577038298 0.2272393724 6.643962487e-22)
(-0.06411245503 0.2141774899 -4.458681103e-23)
(-0.0722756136 0.1936494397 -3.461339602e-22)
(-0.08096972635 0.1656028325 2.152163855e-22)
(-0.0908719199 0.1292707355 0)
(-0.102554742 0.08353082413 0)
(-0.1163622126 0.02720010625 2.655398343e-22)
(-0.1321589531 -0.04062006129 8.194326675e-23)
(-0.1489252294 -0.120012832 -2.821625791e-22)
(-0.1641284262 -0.2089300702 -5.411275024e-23)
(-0.1727877606 -0.3006992519 1.301952231e-22)
(-0.1670311297 -0.3793329117 -3.400509511e-22)
(-0.1365292436 -0.4136451986 -1.593806009e-23)
(-0.08018250141 -0.3538326219 8.204015401e-23)
(-0.01050762296 -0.1594130576 -6.032153442e-22)
(-0.002260498461 0.07348883537 0)
(-0.01580355629 0.1626521781 2.145876331e-21)
(-0.02665042498 0.2117904755 0)
(-0.03422339486 0.2333947296 -1.351808806e-21)
(-0.03759398336 0.2377766851 6.184049446e-23)
(-0.03799685048 0.2312553545 -6.193099769e-22)
(-0.03668265662 0.2171899027 -4.756287591e-22)
(-0.03489036073 0.1968934504 8.301260349e-22)
(-0.03378837633 0.170334239 -1.885699285e-22)
(-0.03449876163 0.1367221077 0)
(-0.0381157245 0.09479673592 0)
(-0.04564992188 0.04304286527 2.410615083e-23)
(-0.05790804087 -0.02013781293 -6.007201593e-22)
(-0.07514598364 -0.09620650271 -4.309569305e-22)
(-0.09645174843 -0.1855556178 4.637864933e-22)
(-0.1183462606 -0.2853567777 -6.488740216e-22)
(-0.1332715375 -0.3838386541 9.119949594e-23)
(-0.1265350984 -0.4504358722 2.937288813e-23)
(-0.08899154076 -0.4198536385 5.660441488e-22)
(-0.01526917933 -0.2111719736 6.020786195e-22)
(-0.005180899567 0.08598045953 0)
(-0.02525550685 0.1766291196 1.465579362e-22)
(-0.0348340791 0.2205961564 -4.91714739e-23)
(-0.03640013752 0.2354859363 7.642934714e-22)
(-0.03018482886 0.2343406768 -7.005382026e-22)
(-0.01916579225 0.2241603897 4.746483625e-23)
(-0.005615147718 0.2083525856 -1.018610107e-22)
(0.008569610631 0.1881241096 -3.389890572e-22)
(0.02179886467 0.1633911275 2.062823714e-22)
(0.03262781747 0.1333242733 0)
(0.03958458808 0.09664086157 0)
(0.04117013484 0.05174056393 -2.902668887e-22)
(0.0357848403 -0.003255398389 0)
(0.02198184874 -0.07058360895 -5.51218927e-22)
(-0.001264844325 -0.1525735511 -1.492377687e-23)
(-0.03310469733 -0.250594985 2.559743063e-23)
(-0.06909235701 -0.359934152 2.203146049e-22)
(-0.0922782693 -0.457542453 4.788068635e-24)
(-0.08718089896 -0.4698129419 -5.789409767e-22)
(-0.02103127147 -0.2698972299 0)
(-0.01111631548 0.1085974972 0)
(-0.04248901843 0.1947151678 -8.848484173e-22)
(-0.04795528875 0.2258195514 -5.41104259e-22)
(-0.03919535847 0.2282135562 4.543819428e-22)
(-0.01877830155 0.2182328143 -1.709986705e-24)
(0.00766431565 0.2028220363 -4.561051863e-23)
(0.03667993603 0.1847619777 5.696684989e-22)
(0.06582998816 0.1647118223 -2.766891698e-23)
(0.09327131136 0.1423128183 -2.069782611e-22)
(0.1173891631 0.116627494 3.142214804e-23)
(0.1365461708 0.08641143875 -3.425918472e-23)
(0.1489669285 0.05017668991 -3.690595444e-23)
(0.1525275796 0.006159166452 3.205634739e-22)
(0.1449367044 -0.04796127072 6.119608687e-22)
(0.1235159802 -0.1153052912 -5.101173986e-22)
(0.08633533517 -0.2004195651 -1.61606009e-22)
(0.0319908936 -0.3067806592 1.531306219e-22)
(-0.02362123108 -0.4239837146 7.293651055e-23)
(-0.06492413036 -0.4871612791 1.91329141e-21)
(-0.02509971702 -0.3291544745 2.954991233e-21)
(-0.02004680462 0.14607274 -4.390208918e-23)
(-0.06416406235 0.2112955857 4.41738167e-23)
(-0.05070230554 0.2177300483 1.00018902e-21)
(-0.01934097302 0.2014679988 -8.270580004e-24)
(0.0241446503 0.1809076184 0)
(0.071541222 0.1606933353 4.363724895e-23)
(0.1190703423 0.1416495499 -2.273853183e-22)
(0.1644767351 0.1233181827 -9.02796252e-23)
(0.2062251178 0.1048117298 3.68073662e-23)
(0.2429643042 0.08507140103 -1.70165565e-23)
(0.2732207597 0.06296147669 3.429971781e-23)
(0.2952536125 0.03726293796 -6.592684058e-23)
(0.3066971074 0.006535067794 -9.303908559e-23)
(0.3049738324 -0.03087770083 1.517044956e-22)
(0.2863936259 -0.07786290998 0)
(0.2470568092 -0.1399300371 1.505613329e-22)
(0.1810922241 -0.2266299753 2.560013744e-22)
(0.09604450283 -0.3443894948 0)
(-0.006697615709 -0.4552210219 -3.67563449e-21)
(-0.019224082 -0.3777537589 -2.892620713e-21)
(-0.0259195132 0.2276828796 -9.514205844e-22)
(-0.03998324616 0.2238216525 -1.388976797e-22)
(0.03656136901 0.181058536 -2.335582857e-22)
(0.1090503047 0.1451059093 -1.193742934e-22)
(0.1817191199 0.1172445497 -4.295829017e-23)
(0.2490090742 0.09627907661 9.783191357e-23)
(0.3100336715 0.08002510451 -1.408593522e-22)
(0.3646209348 0.06656815371 1.297176225e-22)
(0.412625251 0.05449178919 -8.620125824e-23)
(0.4536250316 0.0427089494 1.132189312e-25)
(0.4867878739 0.03032298417 1.527742529e-23)
(0.5107451379 0.01652901841 7.997208825e-23)
(0.5236597469 0.0005365141092 -1.811124762e-22)
(0.5231798024 -0.01863373276 -1.61714709e-22)
(0.5052323428 -0.04286478978 -4.262959386e-23)
(0.4658715087 -0.07633231198 0)
(0.3952696502 -0.1286089384 -1.8464765e-22)
(0.2916071051 -0.2208468098 8.148762501e-22)
(0.1197455107 -0.3525016903 1.631601437e-21)
(0.02670547262 -0.3775497979 2.17265584e-21)
(0.2142894469 0.1347447205 9.864990886e-22)
(0.2776311185 0.0987050353 0)
(0.431659229 0.05810414804 -2.594321934e-22)
(0.5304749347 0.03846264938 -1.741667745e-22)
(0.6016965754 0.0262341911 0)
(0.6571198964 0.01831923476 -6.009098602e-23)
(0.701521361 0.01313600851 6.378008106e-23)
(0.7376042508 0.009542126382 -1.800158114e-23)
(0.7669368424 0.006804463613 2.885976528e-23)
(0.7902106692 0.004464743857 2.315034711e-23)
(0.8074555016 0.002221319765 0)
(0.818262136 -0.0001500750946 -2.873034439e-23)
(0.8216499719 -0.002723848396 0)
(0.8162394199 -0.005712668732 2.738153551e-23)
(0.7991333149 -0.009611382872 1.421694324e-23)
(0.7679986346 -0.01500255107 -5.799401369e-23)
(0.7106555755 -0.02502519952 -2.535660399e-22)
(0.623518398 -0.04204285406 -6.918101034e-22)
(0.423009102 -0.09182968079 0)
(0.2705674689 -0.1524021841 -2.119483706e-21)
)


// ************************************************************************* //
