/*--------------------------------*- C++ -*----------------------------------*\
  =========                 |
  \\      /  F ield         | OpenFOAM: The Open Source CFD Toolbox
   \\    /   O peration     | Website:  https://openfoam.org
    \\  /    A nd           | Version:  13
     \\/     M anipulation  |
\*---------------------------------------------------------------------------*/
FoamFile
{
    format      ascii;
    class       vectorField;
    location    "48";
    object      U_all;
}
// * * * * * * * * * * * * * * * * * * * * * * * * * * * * * * * * * * * * * //


400
(
(0.0001829204753 -0.0001882972026 0)
(-0.0001381520983 2.912050856e-05 0)
(-0.001535207289 0.0002681187042 0)
(-0.003791410364 0.0004194908277 0)
(-0.006557382716 0.0004995300294 0)
(-0.009531027305 0.0005301601233 0)
(-0.01246168399 0.0005211520649 0)
(-0.01511500432 0.0004713837916 0)
(-0.01724956103 0.0003740020483 0)
(-0.01861759993 0.000223550095 0)
(-0.01899259254 2.325345214e-05 0)
(-0.018218957 -0.0002094214671 0)
(-0.01627171608 -0.0004403489365 0)
(-0.01330748581 -0.0006227513831 0)
(-0.00968457692 -0.0007078307077 0)
(-0.005931824735 -0.0006605826081 0)
(-0.002657597039 -0.0004749315697 0)
(-0.0004047908692 -0.000181653931 0)
(0.0005427354809 0.0001379665762 0)
(0.000310517498 0.0003035156182 0)
(-4.691345508e-05 0.0001341117365 0)
(-0.002083745123 0.001933407056 0)
(-0.006444960727 0.003765255045 0)
(-0.01260635274 0.005031845779 0)
(-0.01980722241 0.005698775646 0)
(-0.02737504097 0.005842751354 0)
(-0.03470319326 0.005514333845 0)
(-0.04120776678 0.004719682838 0)
(-0.04630709494 0.00344886076 0)
(-0.04944114368 0.001721404591 0)
(-0.05013580544 -0.0003694307889 0)
(-0.04810070355 -0.002628250377 0)
(-0.04333774787 -0.004756690801 0)
(-0.03622795813 -0.006390392766 0)
(-0.02755937197 -0.007175680691 0)
(-0.01846210002 -0.006875206824 0)
(-0.01022933792 -0.005474730638 0)
(-0.004032854919 -0.00325807685 0)
(-0.0005743511256 -0.0008596500907 0)
(0.0002226196905 0.0005919983124 0)
(-0.0003535319014 0.001717863334 0)
(-0.004495448799 0.006474940761 0)
(-0.01189300126 0.01069091095 0)
(-0.02164168529 0.01354190208 0)
(-0.03264056412 0.0149788935 0)
(-0.04397540241 0.01512971442 0)
(-0.05480547483 0.01408357208 0)
(-0.06431186749 0.01186252491 0)
(-0.07168997353 0.008479858173 0)
(-0.07618584278 0.004030887428 0)
(-0.07717878405 -0.001222446049 0)
(-0.07429719219 -0.006801572985 0)
(-0.06754420173 -0.01201786189 0)
(-0.05740246552 -0.0160520565 0)
(-0.04488005257 -0.01811305876 0)
(-0.031453814 -0.01766039085 0)
(-0.01886950547 -0.01464031001 0)
(-0.008796774811 -0.009659025138 0)
(-0.002418513903 -0.004055669365 0)
(3.599576375e-05 2.838855909e-05 0)
(-0.0006315390989 0.004601914273 0)
(-0.006825629174 0.01369823102 0)
(-0.01713601693 0.02095979478 0)
(-0.03021048789 0.02567699379 0)
(-0.04460556225 0.02791509973 0)
(-0.05922564871 0.02789353371 0)
(-0.07308355032 0.02575159844 0)
(-0.08521887497 0.02153542519 0)
(-0.09468994217 0.01529728427 0)
(-0.100612537 0.007234536153 0)
(-0.1022433548 -0.002185662257 0)
(-0.09909759228 -0.01215364405 0)
(-0.09108513744 -0.02152428913 0)
(-0.07864420889 -0.02892982866 0)
(-0.06283792236 -0.03301562091 0)
(-0.04535777591 -0.03279336941 0)
(-0.02835961723 -0.02804877593 0)
(-0.01409585192 -0.01966910928 0)
(-0.004434636943 -0.009753693823 0)
(-0.0001245278518 -0.001512400704 0)
(-0.0008711316382 0.008670091014 0)
(-0.008910035894 0.02337477985 0)
(-0.02186419744 0.03423951022 0)
(-0.03794160417 0.04099518496 0)
(-0.05537789379 0.0439956432 0)
(-0.07294147748 0.04362827919 0)
(-0.08956546201 0.04010974295 0)
(-0.104221164 0.03351653445 0)
(-0.1158920644 0.02393665051 0)
(-0.1235971645 0.01165858927 0)
(-0.1264589268 -0.002662543358 0)
(-0.1238114329 -0.01790075167 0)
(-0.1153471554 -0.03244589946 0)
(-0.1012956902 -0.04431952382 0)
(-0.08260715537 -0.05146101455 0)
(-0.06107316813 -0.05221233017 0)
(-0.03926569852 -0.0459500982 0)
(-0.02018889314 -0.03367116854 0)
(-0.006688171127 -0.01823514706 0)
(-0.0002710006709 -0.004088667612 0)
(-0.001068480428 0.01376109123 0)
(-0.01066641025 0.03520126023 0)
(-0.02588358675 0.05017577111 0)
(-0.04454813581 0.05912915612 0)
(-0.06462769409 0.06287806954 0)
(-0.08480291407 0.06206992537 0)
(-0.1039854535 0.05703625579 0)
(-0.1211406058 0.04788668054 0)
(-0.1352293233 0.03472126421 0)
(-0.1452002391 0.01787168143 0)
(-0.1500272364 -0.001886297612 0)
(-0.1487968014 -0.02317988678 0)
(-0.1408603068 -0.04397549196 0)
(-0.1260634071 -0.06164744597 0)
(-0.1050410189 -0.07326576844 0)
(-0.07951178963 -0.07619044502 0)
(-0.05241133751 -0.0689815125 0)
(-0.02765940203 -0.05240591324 0)
(-0.009460534901 -0.03002792625 0)
(-0.0004463768194 -0.007850906053 0)
(-0.001215880702 0.01968106297 0)
(-0.01201940641 0.04879175186 0)
(-0.0290150207 0.06831773487 0)
(-0.04973699496 0.07963353636 0)
(-0.07195587375 0.08417304188 0)
(-0.09431546824 0.08293701493 0)
(-0.1157604142 0.07641422728 0)
(-0.1353090528 0.06474762311 0)
(-0.1519551253 0.04801067746 0)
(-0.1646168888 0.02650160982 0)
(-0.1721308689 0.001007786855 0)
(-0.1733061761 -0.02697539831 0)
(-0.1670639566 -0.05509083218 0)
(-0.1527002456 -0.0800844734 0)
(-0.1302930833 -0.098015714 0)
(-0.1012079594 -0.1048925078 0)
(-0.06853709431 -0.09787219882 0)
(-0.03716859143 -0.07688930498 0)
(-0.01311297759 -0.04598333345 0)
(-0.0007021803925 -0.01312882132 0)
(-0.001304605581 0.02619711145 0)
(-0.01289691617 0.0636721177 0)
(-0.03108532691 0.08809656164 0)
(-0.05320334263 0.1019282646 0)
(-0.07689906264 0.1073449721 0)
(-0.1008275053 0.1057896125 0)
(-0.1240167632 0.09795485745 0)
(-0.14559772 0.08402025348 0)
(-0.1646632956 0.06399043884 0)
(-0.180169534 0.03804017185 0)
(-0.1908772187 0.006832379752 0)
(-0.1953535855 -0.02818558456 0)
(-0.1920714158 -0.06450598307 0)
(-0.1796643731 -0.09836388476 0)
(-0.1574023982 -0.1247641261 0)
(-0.1259047811 -0.1380191191 0)
(-0.08798354915 -0.1331468795 0)
(-0.04929041497 -0.1082712454 0)
(-0.0180403057 -0.06727252999 0)
(-0.001101702161 -0.02045632534 0)
(-0.001329946604 0.03304160154 0)
(-0.01325225084 0.07928937738 0)
(-0.03196388621 0.108825762 0)
(-0.05468219849 0.1252738405 0)
(-0.07899963775 0.1316523566 0)
(-0.103623092 0.1299307363 0)
(-0.1277093609 0.1210598624 0)
(-0.1505618688 0.1052712058 0)
(-0.171451806 0.08247041384 0)
(-0.1894735907 0.05262674668 0)
(-0.2034313613 0.01613894506 0)
(-0.2117727051 -0.02579246255 0)
(-0.212611567 -0.07075751088 0)
(-0.2039111681 -0.1147338815 0)
(-0.1839417866 -0.1518138108 0)
(-0.1521285783 -0.1744352463 0)
(-0.1103233611 -0.1747129121 0)
(-0.06432110142 -0.147554316 0)
(-0.02464095466 -0.09530724793 0)
(-0.001728172365 -0.0305846038 0)
(-0.001298630037 0.03993515275 0)
(-0.01310271219 0.09504519546 0)
(-0.03163041437 0.1297221937 0)
(-0.05404437795 0.1487668761 0)
(-0.07793327154 0.1561127794 0)
(-0.1020902315 0.1543392965 0)
(-0.1258422234 0.1447213571 0)
(-0.148723979 0.1275780749 0)
(-0.1702707428 0.1027136001 0)
(-0.1898386894 0.06984118872 0)
(-0.2064424193 0.02898162786 0)
(-0.2186135353 -0.01911016994 0)
(-0.2243205063 -0.07242271614 0)
(-0.221004693 -0.1270734368 0)
(-0.2058991215 -0.1766397795 0)
(-0.1768597172 -0.2118384376 0)
(-0.1339523383 -0.2213355925 0)
(-0.08200215908 -0.1951194535 0)
(-0.03326127393 -0.1315488847 0)
(-0.002695542112 -0.04448933083 0)
(-0.001238697944 0.04663547776 0)
(-0.01258117159 0.1103657452 0)
(-0.03026401637 0.1499601768 0)
(-0.05142022531 0.1713683798 0)
(-0.07367182232 0.1795082677 0)
(-0.09593751354 0.1776575031 0)
(-0.1177603737 0.1674924021 0)
(-0.1389636014 0.149477649 0)
(-0.1594274916 0.1233493061 0)
(-0.1788926771 0.08856335613 0)
(-0.1967668023 0.04470516714 0)
(-0.211915961 -0.00806992987 0)
(-0.2224801564 -0.06846932723 0)
(-0.2257034743 -0.1332279387 0)
(-0.2179890997 -0.1960770822 0)
(-0.1954956091 -0.2466373817 0)
(-0.1557567433 -0.2701363034 0)
(-0.1011455338 -0.2500630267 0)
(-0.04406787461 -0.177142448 0)
(-0.00415823291 -0.06335899019 0)
(-0.001212896395 0.0530199236 0)
(-0.0120002751 0.1248155216 0)
(-0.02834276517 0.1687626084 0)
(-0.04732567179 0.1919675508 0)
(-0.06663931704 0.2004368478 0)
(-0.08539787716 0.1982453155 0)
(-0.10342896 0.1875504307 0)
(-0.1209036938 0.1690313813 0)
(-0.1381110845 0.1424184911 0)
(-0.1552664888 0.1069598585 0)
(-0.172317699 0.06181887092 0)
(-0.1887188275 0.006482250731 0)
(-0.2031168685 -0.05869055918 0)
(-0.213013882 -0.1315614891 0)
(-0.2144959119 -0.2068605128 0)
(-0.2023026666 -0.274237358 0)
(-0.1710744133 -0.3163614515 0)
(-0.1192528283 -0.3094664682 0)
(-0.05680180349 -0.2323050464 0)
(-0.006313539316 -0.08853411241 0)
(-0.001340155074 0.05921446653 0)
(-0.01193594743 0.1382563397 0)
(-0.02674376735 0.1855163055 0)
(-0.04275555541 0.2094623745 0)
(-0.05779821489 0.2173916687 0)
(-0.07132546381 0.214285774 0)
(-0.08356716387 0.2028418789 0)
(-0.09511284678 0.184005672 0)
(-0.1066998219 0.157567738 0)
(-0.1190546935 0.122650563 0)
(-0.1327323963 0.07807970764 0)
(-0.1479049806 0.02272245368 0)
(-0.1640333248 -0.04405373975 0)
(-0.1793972478 -0.1215993292 0)
(-0.1904762093 -0.2064720685 0)
(-0.1913668311 -0.289836839 0)
(-0.1741309084 -0.3536987788 0)
(-0.1323287254 -0.3678793303 0)
(-0.0703962857 -0.2954401698 0)
(-0.009382817377 -0.1213258685 0)
(-0.001836152856 0.06579208128 0)
(-0.01334587538 0.1510434965 0)
(-0.02682717369 0.1998732345 0)
(-0.03918467244 0.2228079146 0)
(-0.04856601138 0.2288166931 0)
(-0.05504650943 0.2238866939 0)
(-0.05945242293 0.2112468759 0)
(-0.06287975014 0.1921008691 0)
(-0.06652707478 0.1663297086 0)
(-0.07160352443 0.1330098988 0)
(-0.07923530495 0.09075826875 0)
(-0.09032187576 0.03798374816 0)
(-0.1052738379 -0.02682051578 0)
(-0.1235426064 -0.1045227287 0)
(-0.1428002067 -0.1940579463 0)
(-0.1576923627 -0.2896139515 0)
(-0.1588536003 -0.3752661897 0)
(-0.13503638 -0.4173835176 0)
(-0.0824994364 -0.3621027218 0)
(-0.0135189021 -0.1625536859 0)
(-0.003073427126 0.07406554714 0)
(-0.01771765275 0.1642261456 0)
(-0.03041899493 0.2117527031 0)
(-0.03829956616 0.2309382877 0)
(-0.04031451356 0.2330487195 0)
(-0.0376688287 0.2250848685 0)
(-0.03206695489 0.2106572361 0)
(-0.02520962502 0.1911063451 0)
(-0.01874246785 0.1663583692 0)
(-0.01427544691 0.1354814559 0)
(-0.01338797992 0.09700961591 0)
(-0.01758799943 0.04911721531 0)
(-0.02817716113 -0.01025823965 0)
(-0.04592049343 -0.08318500369 0)
(-0.0702830247 -0.1709756732 0)
(-0.09779114334 -0.271874835 0)
(-0.1195803711 -0.3750561142 0)
(-0.1210290094 -0.4484895068 0)
(-0.08897009437 -0.4243391912 0)
(-0.01849578164 -0.2117404389 0)
(-0.005569758118 0.08658453527 0)
(-0.02705688376 0.1796406497 0)
(-0.0392566963 0.2209807271 0)
(-0.04077210451 0.2323055743 0)
(-0.03260733087 0.2279353677 0)
(-0.01794825799 0.2155783715 0)
(0.0002942881254 0.1988159052 0)
(0.01975596113 0.1788426907 0)
(0.03840921049 0.1554870066 0)
(0.05437338928 0.1277862722 0)
(0.06578530754 0.09428370677 0)
(0.07072594656 0.05314332908 0)
(0.06721285079 0.002148428387 0)
(0.05332456982 -0.06136957261 0)
(0.02766325244 -0.1404589821 0)
(-0.00915669798 -0.2374846796 0)
(-0.0510812292 -0.3491614381 0)
(-0.0830332181 -0.451588768 0)
(-0.08338770405 -0.4711577812 0)
(-0.02311118651 -0.2667528621 0)
(-0.00989151263 0.1087082892 0)
(-0.04292437347 0.1996195119 0)
(-0.05207660048 0.2258307458 0)
(-0.04153032742 0.2234122376 0)
(-0.01749949839 0.209718101 0)
(0.01373969916 0.1919649263 0)
(0.04800572908 0.172846107 0)
(0.08246391165 0.1529278987 0)
(0.1149481081 0.1317040644 0)
(0.1435560134 0.1081137187 0)
(0.1663861714 0.08077096657 0)
(0.1813640869 0.04801633132 0)
(0.1861215022 0.007845513083 0)
(0.17795731 -0.04234261474 0)
(0.1539265065 -0.1062322892 0)
(0.1116550079 -0.189124603 0)
(0.05244921802 -0.2960017689 0)
(-0.01242380626 -0.4177473326 0)
(-0.05670421854 -0.4889648982 0)
(-0.02464939636 -0.3240548713 0)
(-0.01781285852 0.1516610131 0)
(-0.06127639009 0.2236358082 0)
(-0.05219844966 0.2177015576 0)
(-0.01421894186 0.1950167588 0)
(0.03563459818 0.171165905 0)
(0.08890677283 0.1491925155 0)
(0.1416055389 0.1294916999 0)
(0.1914397447 0.111472395 0)
(0.236809634 0.09409822209 0)
(0.276313413 0.07619061652 0)
(0.3084200435 0.05651901521 0)
(0.3312620709 0.03376317892 0)
(0.3424627386 0.006409001268 0)
(0.3390298429 -0.02752503724 0)
(0.3171597174 -0.07119896622 0)
(0.272272594 -0.1305526336 0)
(0.2001742824 -0.2164980672 0)
(0.1030267627 -0.3383563937 0)
(0.004383013626 -0.4567892463 0)
(-0.01595705081 -0.3693310104 0)
(-0.02422657772 0.2082590031 0)
(-0.03791942642 0.2303505126 0)
(0.03727800678 0.1765395247 0)
(0.1250869286 0.1368804818 0)
(0.2058995351 0.1091021513 0)
(0.2781258455 0.08826585302 0)
(0.342424817 0.07217024354 0)
(0.3990773882 0.05922666235 0)
(0.4481258632 0.04805526398 0)
(0.4893377013 0.03752504618 0)
(0.5220356488 0.02669864418 0)
(0.5449880012 0.01473027382 0)
(0.5563150678 0.0007484036985 0)
(0.5533684459 -0.01631792464 0)
(0.5323374343 -0.03830786958 0)
(0.4877612705 -0.06916295047 0)
(0.4111526579 -0.1191036841 0)
(0.2908959587 -0.2093505547 0)
(0.1331385268 -0.3382877089 0)
(0.03877817489 -0.3403667311 0)
(0.2418840719 0.1091304802 0)
(0.313448025 0.09711362377 0)
(0.4443101603 0.05696580235 0)
(0.5496248643 0.03510800623 0)
(0.6240718607 0.02373939882 0)
(0.6796370915 0.01670995612 0)
(0.7235360253 0.01197972793 0)
(0.7588616068 0.008692891157 0)
(0.7871609035 0.006252815202 0)
(0.8092301054 0.004228777066 0)
(0.8252475572 0.002326686725 0)
(0.834844669 0.0003386106092 0)
(0.8371607485 -0.001911653674 0)
(0.8307788298 -0.004592579075 0)
(0.8133994293 -0.008029536868 0)
(0.7811327252 -0.01288422893 0)
(0.7256877408 -0.02122746139 0)
(0.6298606385 -0.03809063988 0)
(0.4592681081 -0.08554779661 0)
(0.3048944047 -0.1256974296 0)
)


// ************************************************************************* //
