/*--------------------------------*- C++ -*----------------------------------*\
  =========                 |
  \\      /  F ield         | OpenFOAM: The Open Source CFD Toolbox
   \\    /   O peration     | Website:  https://openfoam.org
    \\  /    A nd           | Version:  13
     \\/     M anipulation  |
\*---------------------------------------------------------------------------*/
FoamFile
{
    format      ascii;
    class       scalarField;
    location    "9";
    object      p_all;
}
// * * * * * * * * * * * * * * * * * * * * * * * * * * * * * * * * * * * * * //


400
(
-1.741814386e-09
-0.0003628730054
-0.0007555592464
-0.0009832179689
-0.00096086117
-0.0006602321025
-7.803613969e-05
0.000774117536
0.001869731779
0.00316271995
0.004581935413
0.006028850678
0.007381837283
0.008509824274
0.009295004906
0.009661816333
0.00960525641
0.009211122808
0.008666181845
0.00824000336
0.0003634996216
-1.004757501e-05
-0.0003412872634
-0.0005065988649
-0.0004520820846
-0.0001613613952
0.0003681048429
0.001129160359
0.002102084446
0.003249279811
0.004510110164
0.005798934807
0.007009064537
0.008025010219
0.008742925754
0.009095853569
0.009076934888
0.008753769607
0.008274931154
0.007836298387
0.0007715357823
0.0002941613948
-5.946218492e-05
-0.0002139281885
-0.0001562012474
0.0001114431775
0.0005880652792
0.001271153123
0.002149629126
0.003196258269
0.00436091324
0.005567008218
0.006714189867
0.007689295623
0.008386339676
0.008731855305
0.008707919143
0.008364586941
0.007823957293
0.007252190556
0.001006955035
0.0003933865212
-3.07370678e-05
-0.000214592678
-0.0001786012378
5.578461548e-05
0.0004832168293
0.001106162185
0.00192360803
0.002920177177
0.004056396497
0.0052620993
0.006436338618
0.007456719934
0.00819980852
0.008569468716
0.008524801534
0.008098064319
0.007407748922
0.00663324474
0.0009265215539
0.0001688949202
-0.0003450263698
-0.00058103731
-0.0005852142159
-0.0003946800616
-1.714317377e-05
0.0005567644298
0.001338285764
0.002326141461
0.003493016732
0.004774631855
0.00606546893
0.007225036092
0.008098516528
0.008550132289
0.008501290234
0.00796261602
0.00706636871
0.006030602083
0.0004216758764
-0.0004779645177
-0.001088516584
-0.001389282852
-0.001448210411
-0.001314901175
-0.0009965852345
-0.0004740425117
0.0002797234083
0.001281813715
0.002521777233
0.003944908615
0.005441932073
0.006849030761
0.007966698012
0.008598529345
0.008604813385
0.007959297139
0.006814441826
0.005448693825
-0.0006033780585
-0.001640503598
-0.002351353552
-0.002726911597
-0.002857015515
-0.002802252042
-0.002566990006
-0.002118821614
-0.001410170966
-0.0003986067431
0.0009313958398
0.002544969853
0.004336834049
0.006120718004
0.00764068908
0.008612630404
0.008797469292
0.008096663649
0.006672758245
0.004888137454
-0.002239490419
-0.003409548195
-0.004224953015
-0.004687131738
-0.004911317612
-0.00496977336
-0.004862764557
-0.004541662909
-0.003932630769
-0.002958227543
-0.001562370812
0.0002579167774
0.002420735895
0.00472927831
0.00686572899
0.008426400949
0.009014471655
0.008391225375
0.006689230782
0.004379406943
-0.004575777764
-0.005873548768
-0.006798307197
-0.007361239231
-0.007710235125
-0.007932563496
-0.008024960234
-0.00792072838
-0.007514298635
-0.006681849232
-0.005307141158
-0.003321477577
-0.0007492535723
0.002233012277
0.005256336258
0.007768746793
0.009136284597
0.008864942491
0.006962377354
0.004023494236
-0.007701185252
-0.009118006343
-0.01015348424
-0.01082869539
-0.0113362758
-0.01178517679
-0.01217165029
-0.01241128457
-0.01236312304
-0.01184620062
-0.01066230424
-0.008638012119
-0.005692807023
-0.00192435743
0.002288524592
0.006238035109
0.00896379844
0.009543945063
0.007674712276
0.004053501199
-0.01170728519
-0.01322562335
-0.01435992381
-0.01514301207
-0.01583155383
-0.01656704864
-0.01735100023
-0.01808439077
-0.01859054489
-0.0186238569
-0.01788354274
-0.01605142171
-0.01288308829
-0.008307425818
-0.002628167307
0.003333154563
0.008222871057
0.01047103986
0.009145818554
0.004936021914
-0.01669804186
-0.01828058691
-0.01946851274
-0.02031302612
-0.02116573912
-0.02221635754
-0.02347899883
-0.02484488017
-0.02610470764
-0.02694665369
-0.02695541307
-0.02564198643
-0.02251593096
-0.01725244976
-0.00994177347
-0.001395972675
0.006650844765
0.0117640147
0.01192368038
0.007540710611
-0.02281791521
-0.02438345946
-0.02550758655
-0.0262801456
-0.02719778231
-0.0285180533
-0.03027299287
-0.03234679133
-0.03450109443
-0.03636156542
-0.03739819581
-0.03693226824
-0.03419728524
-0.02851084853
-0.01958947344
-0.008022753402
0.004234667703
0.01377683236
0.01694802643
0.01341226368
-0.03032286688
-0.03168785816
-0.03248303519
-0.03289207359
-0.03363596405
-0.03505794651
-0.03720275746
-0.03994078057
-0.04300210164
-0.04595306197
-0.04815727197
-0.04875455596
-0.04669882472
-0.04089702928
-0.03055218018
-0.0157622569
0.001641912544
0.01743035343
0.02583646066
0.0251611777
-0.03974233042
-0.04047602366
-0.04038249169
-0.03987169611
-0.04000245055
-0.04119923209
-0.0434870496
-0.04669517633
-0.0505042058
-0.05441396241
-0.05768866912
-0.05930742349
-0.05796735841
-0.05218073585
-0.04057482327
-0.02251781099
0.000764086733
0.02472527898
0.04132974783
0.04689401736
-0.05217681534
-0.05129257637
-0.04917060405
-0.04676700843
-0.04559951518
-0.04608876127
-0.04815029614
-0.05151145725
-0.05576060531
-0.06030284326
-0.06429220712
-0.06655956186
-0.06558181527
-0.05951428601
-0.04644184166
-0.02488288151
0.005018375312
0.03924605541
0.06783761062
0.08443492025
-0.06984702983
-0.0651626276
-0.05867916875
-0.05279033493
-0.04941478384
-0.04864983946
-0.05010518621
-0.05330000546
-0.05765753023
-0.0624371781
-0.06665470854
-0.06898203055
-0.06767497723
-0.06055784304
-0.04520874303
-0.01926593574
0.01858648223
0.06595891766
0.1119278047
0.1459039253
-0.09941934286
-0.08410340049
-0.06797557312
-0.05621144016
-0.04975077105
-0.04742686692
-0.04817379392
-0.05113827422
-0.05549360071
-0.0602990955
-0.0644268771
-0.06636826297
-0.06412595223
-0.05516647596
-0.0364849275
-0.004748978213
0.0433040959
0.1085659552
0.1822553376
0.2485985413
-0.1715175694
-0.1114366587
-0.07314290107
-0.05312188187
-0.04387681665
-0.04071693384
-0.04146229716
-0.04477918462
-0.0495435495
-0.054607857
-0.05876183273
-0.06045026005
-0.0574174409
-0.04677702548
-0.02488101769
0.01293701763
0.07296662488
0.1626416658
0.2855026584
0.4371887328
-0.3513347535
-0.1510918054
-0.06844905283
-0.0424560765
-0.03275213153
-0.02987025401
-0.03140419808
-0.03574207747
-0.04151345301
-0.04745732
-0.05224236133
-0.05424413241
-0.05122902194
-0.04022125068
-0.01699307145
0.02483853657
0.09598640538
0.2168367715
0.417770629
0.7228263248
)


// ************************************************************************* //
