/*--------------------------------*- C++ -*----------------------------------*\
  =========                 |
  \\      /  F ield         | OpenFOAM: The Open Source CFD Toolbox
   \\    /   O peration     | Website:  https://openfoam.org
    \\  /    A nd           | Version:  13
     \\/     M anipulation  |
\*---------------------------------------------------------------------------*/
FoamFile
{
    format      ascii;
    class       scalarField;
    location    "9";
    object      p_all;
}
// * * * * * * * * * * * * * * * * * * * * * * * * * * * * * * * * * * * * * //


400
(
4.511163002e-07
-0.0005130370808
-0.0008249897957
-0.0009253133146
-0.0008240794141
-0.0005530474216
-0.0001488488529
0.0003535796033
0.0009190210714
0.001508638474
0.002078681651
0.002578577514
0.00295490909
0.003155872166
0.003139976457
0.002887469989
0.002414392207
0.001775263197
0.001148746405
0.0005751924359
0.0005529553666
7.243350105e-06
-0.0003259841489
-0.0004408045026
-0.0003845399472
-0.0001835311794
0.0001330336677
0.0005361015676
0.0009947532259
0.001472541112
0.00193245472
0.002323802007
0.002598108801
0.002709153071
0.002622850714
0.002328461823
0.001848801128
0.00124441992
0.0006761826621
3.688887216e-05
0.00088612258
0.0002815296904
-8.691849201e-05
-0.000204865977
-0.0001700167996
-1.204263638e-05
0.0002446093085
0.0005779357757
0.0009640033787
0.00137326012
0.001767553128
0.002101686517
0.002325362544
0.002390919483
0.002263185657
0.001930574847
0.001413581577
0.0007646784208
9.741757289e-05
-0.0007099897633
0.0008904644474
0.0002164459029
-0.0001975852591
-0.0003193178417
-0.0002954267336
-0.0001621640093
5.862022911e-05
0.0003524470184
0.0007040660335
0.001091327807
0.001478142016
0.001818823961
0.002055804869
0.002130639356
0.001995248598
0.001625327896
0.001030086049
0.0002529509352
-0.00062315428
-0.001727266912
0.0004021549443
-0.0003179727201
-0.0007585426408
-0.0008766076938
-0.0008580905665
-0.000744025566
-0.00055179143
-0.0002853430264
5.243069163e-05
0.0004498826651
0.0008771729469
0.00128692117
0.001610772612
0.001771005185
0.001693601243
0.001326263058
0.0006540265638
-0.0002931878468
-0.001454829419
-0.002925114942
-0.0007202836412
-0.001458054831
-0.001908269007
-0.002021276022
-0.0020152275
-0.001933022923
-0.001783930538
-0.001556472427
-0.001234815677
-0.000812607381
-0.0003068226306
0.0002389168285
0.0007449491206
0.001106354462
0.001206236029
0.0009406694135
0.0002463876169
-0.0008748569467
-0.002389123835
-0.004325041936
-0.00260726837
-0.003332612988
-0.003785922857
-0.003906698588
-0.003941978394
-0.003933699447
-0.00387862523
-0.003743257179
-0.003483435542
-0.003062097468
-0.002469509181
-0.001730618034
-0.0009292604008
-0.0002007886733
0.0002750017524
0.0003063746411
-0.0002621106673
-0.00149360911
-0.003405762239
-0.005919615203
-0.005366979514
-0.006055819506
-0.006516016904
-0.006676109082
-0.006809612305
-0.006955780342
-0.007095183514
-0.007165273057
-0.007081564538
-0.006758549616
-0.006137539957
-0.00518485443
-0.003978234214
-0.002671282796
-0.001522292401
-0.0008589384317
-0.001002026277
-0.002155673105
-0.004454788715
-0.007662063386
-0.009074588449
-0.009707908486
-0.01018718824
-0.01043398838
-0.01074790951
-0.01116666841
-0.01165360086
-0.01211182891
-0.0124044802
-0.01237348308
-0.01186174849
-0.01078610589
-0.009121428879
-0.007017121221
-0.004807548496
-0.003005058308
-0.00220118536
-0.00287662367
-0.005425673956
-0.009409105216
-0.01375755623
-0.01431868842
-0.01482936308
-0.01521124213
-0.01579512278
-0.01662336857
-0.01764597853
-0.01873106088
-0.01968038866
-0.02024424861
-0.02014671173
-0.01914169386
-0.01708406021
-0.01403137717
-0.01034537153
-0.006740552677
-0.004196488818
-0.003677133397
-0.006101598777
-0.01083679736
-0.01938887649
-0.01985801265
-0.02039571515
-0.02093181006
-0.02184486448
-0.02319505864
-0.02492894552
-0.026885106
-0.02880254223
-0.03032627873
-0.03102725539
-0.03045452225
-0.02825226323
-0.02427152778
-0.01879264326
-0.01267381203
-0.007355740714
-0.004535098711
-0.006084365673
-0.01130503456
-0.02589944239
-0.02624205902
-0.02675891778
-0.02739310933
-0.02860892682
-0.03050611538
-0.03304289744
-0.0360385451
-0.03917521293
-0.04199171222
-0.04389165463
-0.04418472501
-0.04223621656
-0.03757197002
-0.03022381503
-0.02102421994
-0.01181924675
-0.005230371552
-0.004665068542
-0.009647750607
-0.0332232104
-0.0333618429
-0.03372605744
-0.03426728616
-0.03561125796
-0.0379279256
-0.04120355708
-0.04524690253
-0.04969025673
-0.0539733171
-0.0573402015
-0.05887656936
-0.05757464267
-0.05261123458
-0.04359136728
-0.03106248407
-0.01703296813
-0.00502368406
-0.0005989894281
-0.003882177722
-0.04139992582
-0.04114224104
-0.0410766305
-0.04113045212
-0.04222824097
-0.04464590403
-0.04840718945
-0.05330753298
-0.05892592351
-0.06460659564
-0.06944365229
-0.07229995809
-0.07187475496
-0.06691184222
-0.05651230487
-0.04069152983
-0.02124322578
-0.002216281574
0.008245767089
0.009117432478
-0.05077340737
-0.04961256935
-0.04858105677
-0.04747653617
-0.04773989215
-0.04977248868
-0.0536202382
-0.05903716107
-0.06552297396
-0.07231080322
-0.07834429408
-0.08228004911
-0.08255073813
-0.07750381541
-0.06574111676
-0.04660148622
-0.02133653529
0.006197877651
0.02531973791
0.03400817036
-0.06247557527
-0.0591108905
-0.05610970323
-0.05281927651
-0.05147381578
-0.05254791092
-0.05604013421
-0.06159856486
-0.06858331402
-0.07607356422
-0.08283772852
-0.08731738463
-0.08769514084
-0.08194082789
-0.06823435779
-0.04519985535
-0.0134625387
0.02467571908
0.05576500913
0.07750372032
-0.07915507303
-0.07015660981
-0.06333439527
-0.05646525141
-0.05271205192
-0.05235705712
-0.05519251781
-0.06063001734
-0.06781773354
-0.07562423843
-0.08260025924
-0.08694473933
-0.08657318412
-0.07909043156
-0.06223972097
-0.03406068536
0.005319771926
0.0585645295
0.1056957875
0.1479083473
-0.1097015774
-0.08516883222
-0.07108897836
-0.05856227652
-0.05149922106
-0.04930864314
-0.05129358076
-0.05645706488
-0.06362766407
-0.0714093183
-0.07811337558
-0.08169532051
-0.07986725625
-0.06952394007
-0.04820151126
-0.01295851911
0.03783399597
0.1067324876
0.1775859154
0.2560647798
-0.1678447379
-0.09941544417
-0.0747177431
-0.05462656561
-0.04442587979
-0.04122554997
-0.04310872704
-0.04851345587
-0.05594964056
-0.06381218553
-0.07024270669
-0.07302030823
-0.06940619755
-0.05669568941
-0.03104201214
0.01165036598
0.07514597276
0.1658936292
0.275642497
0.4372136865
-0.3978500939
-0.1376553467
-0.07474131113
-0.04700114869
-0.0334530322
-0.02977812418
-0.03230745251
-0.03851174225
-0.04659799248
-0.05487060438
-0.06144872937
-0.0641198877
-0.0603270556
-0.04661751717
-0.01870840383
0.02972746351
0.1065691488
0.2329621613
0.4193972238
0.7795575467
)


// ************************************************************************* //
