/*--------------------------------*- C++ -*----------------------------------*\
  =========                 |
  \\      /  F ield         | OpenFOAM: The Open Source CFD Toolbox
   \\    /   O peration     | Website:  https://openfoam.org
    \\  /    A nd           | Version:  13
     \\/     M anipulation  |
\*---------------------------------------------------------------------------*/
FoamFile
{
    format      ascii;
    class       surfaceScalarField;
    location    "9";
    object      phi_0;
}
// * * * * * * * * * * * * * * * * * * * * * * * * * * * * * * * * * * * * * //

dimensions      [0 3 -1 0 0 0 0];

internalField   nonuniform List<scalar> 
760
(
-1.319824239e-05
1.319847594e-05
-6.999715461e-05
5.679889941e-05
-0.0001564753107
8.647814822e-05
-0.0002553602184
9.88850657e-05
-0.000354150402
9.879032092e-05
-0.000443763913
8.961350753e-05
-0.0005173499015
7.358598122e-05
-0.0005694663505
5.211644842e-05
-0.0005958198475
2.635356397e-05
-0.000593488655
-2.331245889e-06
-0.0005613379088
-3.215081753e-05
-0.0005007852604
-6.055266224e-05
-0.0004162814143
-8.450390332e-05
-0.000315597627
-0.0001006838856
-0.0002095940449
-0.0001060036032
-0.000111310676
-9.828328981e-05
-3.423011208e-05
-7.708047691e-05
1.04222618e-05
-4.465238994e-05
1.989114555e-05
-9.468955145e-06
1.989114423e-05
-6.597464336e-05
7.917326933e-05
-0.0002352810271
0.0002261050998
-0.0004717552748
0.0003229520737
-0.0007379179833
0.0003650475196
-0.001003752664
0.0003646248173
-0.001245814414
0.0003316751451
-0.001445716804
0.0002734883738
-0.001588880814
0.0001952805009
-0.001664097637
0.0001015705792
-0.001664175645
-2.253045722e-06
-0.001586304514
-0.0001100217864
-0.001434387577
-0.0002124693738
-0.001219587199
-0.0002993039949
-0.0009610312235
-0.0003592395414
-0.0006851698512
-0.0003818646799
-0.0004234065827
-0.0003600463801
-0.00020767984
-0.0002928072089
-6.362495149e-05
-0.0001887073568
-2.412895414e-06
-7.068107355e-05
1.747823585e-05
-0.000116983269
0.0001961564488
-0.000394746913
0.0005038689746
-0.0007693029339
0.0006975081445
-0.00118690238
0.0007826469143
-0.001604331164
0.0007820535284
-0.001986941149
0.0007142851522
-0.002306805606
0.000593352838
-0.002541318163
0.0004297930203
-0.002672805586
0.0002330579685
-0.00268917687
1.411809452e-05
-0.00258551142
-0.0002136873475
-0.002365906263
-0.0004320745237
-0.002045397751
-0.0006198124624
-0.001650897509
-0.0007537397643
-0.00122055547
-0.0008122067145
-0.0008006123904
-0.0007799894731
-0.000439051259
-0.000654368453
-0.0001760589161
-0.0004516997962
-3.300874256e-05
-0.0002137312902
-1.553056961e-05
-0.0001631228543
0.0003592792223
-0.0005431122444
0.0008838584385
-0.001049844442
0.00120424028
-0.001613249598
0.00134605206
-0.002178458438
0.001347262379
-0.002701643096
0.001237469868
-0.00314692815
0.001038637863
-0.003484418863
0.0007672837487
-0.003689642898
0.0004382821368
-0.003744312223
6.878746481e-05
-0.003638569353
-0.0003194302014
-0.003373332019
-0.0006973117775
-0.002963506121
-0.001029638268
-0.002440068091
-0.001277177768
-0.001850454375
-0.001401820505
-0.001255707719
-0.001374736189
-0.0007230928949
-0.001186983317
-0.0003140629441
-0.0008607297325
-7.029143688e-05
-0.0004575027874
-8.582208279e-05
-0.0002056678014
0.000564946906
-0.0006818864781
0.001360077158
-0.001315755953
0.001838109739
-0.002022023307
0.00205231935
-0.002735692263
0.002060931213
-0.003405456735
0.00190723431
-0.00398883214
0.001622013174
-0.004449109925
0.001227561469
-0.0047542686
0.0007434408367
-0.004877725126
0.0001922439498
-0.004800971573
-0.0003961837607
-0.004517005258
-0.0009812779897
-0.004035283439
-0.001511359974
-0.003386080796
-0.001926380387
-0.002623446384
-0.002164454984
-0.001824329672
-0.002173853003
-0.001081280946
-0.00193003203
-0.0004873684445
-0.001454642122
-0.0001162192018
-0.0008286520617
-0.0002020413034
-0.000244532034
0.0008094789175
-0.0008096886734
0.001925233779
-0.001563553509
0.00259197451
-0.002408149548
0.002896915344
-0.003270478096
0.002923259637
-0.004093689255
0.002730445461
-0.004830186679
0.002358510523
-0.005437095099
0.001834469859
-0.005874233565
0.001180579333
-0.006104510368
0.0004225207583
-0.006096858213
-0.0004038358668
-0.005830720243
-0.001247415849
-0.005303390414
-0.002038689687
-0.004537709333
-0.002692061478
-0.003589513042
-0.003112651365
-0.002551273838
-0.003212092232
-0.00154719874
-0.002934107027
-0.0007151841074
-0.002286656616
-0.0001769440097
-0.00136689221
-0.0003789852425
-0.0002781211586
0.001087600051
-0.000921502527
0.002568615037
-0.001783232059
0.003453703884
-0.002755984454
0.003869667657
-0.003761480457
0.003928755455
-0.004739722846
0.00370868782
-0.005640026461
0.003258814047
-0.006414709289
0.002609152678
-0.007015724976
0.00178159508
-0.007394247286
0.000801043156
-0.007503574108
-0.0002945089331
-0.007304100476
-0.001446889329
-0.006773347412
-0.002569442693
-0.005917476359
-0.003547932591
-0.004785171114
-0.004244956713
-0.003479314214
-0.004517949138
-0.002159073811
-0.004254347386
-0.00102196613
-0.003423764286
-0.0002609879128
-0.002127870548
-0.0006399731077
-0.0003041281258
0.001391728143
-0.001009539779
0.003274026601
-0.001959322996
0.004403486942
-0.00304048227
0.004950826885
-0.004172475381
0.005060748414
-0.005294952063
0.004831164494
-0.006356847733
0.004320709655
-0.007308184992
0.003560489979
-0.008095057087
0.00256846724
-0.008657822019
0.001363808202
-0.00893383808
-1.849269097e-05
-0.008860111726
-0.001520615589
-0.008387904994
-0.003041649393
-0.007495513499
-0.004440324187
-0.00621030449
-0.005530165777
-0.004632209414
-0.006096044169
-0.002950305012
-0.005936251825
-0.001433915585
-0.004940153787
-0.0003785308397
-0.003183255376
-0.00101850395
-0.0003200929168
0.001711820941
-0.001065290371
0.004019223953
-0.00207400446
0.00541220086
-0.003231066888
0.006107889256
-0.004456614397
0.006286295803
-0.005692907649
0.006067457749
-0.006891850444
0.005519652405
-0.008005040774
0.004673680379
-0.008976983335
0.003540409857
-0.009741668365
0.002128493369
-0.01022150996
0.0004613489936
-0.01033483169
-0.00140729383
-0.01000063594
-0.003375845223
-0.0091590803
-0.005281879959
-0.007797947938
-0.006891298178
-0.005990395818
-0.007903596246
-0.003935298963
-0.007991348737
-0.001974334644
-0.006901118132
-0.0005411804266
-0.004616409572
-0.001559684366
-0.0003247822804
0.002036603123
-0.001082843438
0.004777285077
-0.002112349279
0.006441706604
-0.003298642365
0.007294182344
-0.004565081387
0.007552734779
-0.005859409584
0.007361785971
-0.007140200938
0.006800443731
-0.008365590907
0.005899070355
-0.009484957993
0.004659776991
-0.01043348068
0.003077016115
-0.01112937844
0.001157246776
-0.01147516155
-0.00106151078
-0.01136299719
-0.003488009721
-0.01068927162
-0.005955605631
-0.009384023326
-0.008196546467
-0.007460949934
-0.009826669634
-0.005088319892
-0.01036397875
-0.002655344595
-0.009334093271
-0.0007613950805
-0.00651035896
-0.002321079372
-0.0003200040293
0.00235660709
-0.001063360427
0.005520641539
-0.0020695247
0.007447870813
-0.003225625368
0.008450283008
-0.004460420083
0.00878752944
-0.00572995999
0.008631325825
-0.007003352826
0.00807383651
-0.00825082843
0.007146545835
-0.009434525249
0.005843473727
-0.01050144103
0.004143931957
-0.01137793287
0.002033738592
-0.01196541517
-0.000474028511
-0.01214130576
-0.003312119118
-0.01176286571
-0.006334045604
-0.01069242265
-0.009266989419
-0.008850829062
-0.01166826326
-0.006316966538
-0.0128978412
-0.003463952072
-0.01218710757
-0.001050683488
-0.008923627565
-0.003371762841
-0.0003130050744
0.002669612097
-0.001020479991
0.006228116568
-0.001959089273
0.008386480042
-0.003017376255
0.009508569946
-0.004132061109
0.009902214205
-0.005270931434
0.009770196011
-0.006417722971
0.009220628028
-0.00756018071
0.008289003518
-0.008680905159
0.006964198161
-0.009749628885
0.005212655822
-0.01071559289
0.002999702673
-0.01149776961
0.0003081482699
-0.01197978269
-0.002830105947
-0.01199873072
-0.006315097453
-0.011356498
-0.009909222102
-0.009861258192
-0.01316350315
-0.00743919181
-0.01531990756
-0.004342451553
-0.01528384777
-0.001415494318
-0.01185058504
-0.004787257235
-0.0003198759294
0.002989487965
-0.0009865131368
0.006894753815
-0.001820987029
0.009220953872
-0.002712024871
0.01039960773
-0.003609208463
0.0107993977
-0.004497631804
0.01065861919
-0.005380623994
0.01010362028
-0.006268228777
0.009176608386
-0.007169208487
0.007865177967
-0.008084065556
0.006127512934
-0.008996743554
0.00391238067
-0.009864400669
0.001175805295
-0.0105978352
-0.002096671489
-0.01104814424
-0.005864788504
-0.01098723135
-0.009970135097
-0.01012058402
-0.01403015045
-0.008179215044
-0.01726127645
-0.005167283994
-0.01829577869
-0.001849325927
-0.0151685431
-0.006636583057
-0.000370764102
0.00336025204
-0.001019221721
0.007543211392
-0.001726906813
0.009928638902
-0.002383788507
0.01105648946
-0.00296314367
0.01137875293
-0.003477362021
0.01117283756
-0.003956238402
0.01058249662
-0.004436259334
0.009656629273
-0.004954978657
0.008383897369
-0.005546366016
0.006718900286
-0.006234413702
0.004600428332
-0.007022920343
0.001964311933
-0.007876267014
-0.001243324805
-0.008693380565
-0.005047675029
-0.009268071493
-0.009395444244
-0.00925360418
-0.0140446176
-0.008192965772
-0.01832191481
-0.005735441001
-0.02075330345
-0.002320491744
-0.01858349222
-0.008957074826
-0.0005189267384
0.003879178763
-0.001207875372
0.008232160035
-0.001776804172
0.01049756766
-0.002129064798
0.01140875011
-0.002284293146
0.01153398124
-0.002298818116
0.01118736255
-0.002238140409
0.01052181892
-0.002168647774
0.009587136771
-0.002156064729
0.008371314466
-0.002264918674
0.006827754229
-0.002556083855
0.004891593396
-0.003080465469
0.002488693471
-0.003865570399
-0.0004582198859
-0.004886986076
-0.004026259455
-0.006019550046
-0.008262880239
-0.00695071779
-0.01311344967
-0.007111399146
-0.01816123349
-0.005762242772
-0.0221024599
-0.002750040138
-0.02159569474
-0.01170711502
-0.00084997956
0.004729158285
-0.001664856454
0.009047036981
-0.002061778316
0.01089448948
-0.002002147203
0.01134911894
-0.001595320259
0.01112715431
-0.000966074549
0.01055811692
-0.000226309058
0.009782053415
0.0005263029022
0.008834524751
0.001201270187
0.007696347211
0.001710051836
0.006318972629
0.001963428486
0.004638216796
0.00187190318
0.002580218935
0.001349425752
6.425765841e-05
0.0003365673605
-0.003013401129
-0.00116333287
-0.006762979933
-0.00297291674
-0.01130386583
-0.004564123154
-0.01657002713
-0.004867534671
-0.0217990483
-0.002961283912
-0.02350194546
-0.01466839877
-0.001481098194
0.006210256438
-0.002431572876
0.009997511629
-0.002473372272
0.01093628882
-0.001754942431
0.01063068905
-0.0005489679747
0.009921179912
0.0009254108263
0.009083738038
0.002506749102
0.008200715278
0.004071116401
0.007270157583
0.005512541841
0.006254921879
0.006729256705
0.005102257792
0.007615410678
0.003752062764
0.008056142384
0.002139487159
0.007923838539
0.0001965613435
0.007091672206
-0.002181235019
0.005439438634
-0.005110746178
0.002956857748
-0.008821284923
-7.986427784e-07
-0.01361237054
-0.002497747069
-0.01930209975
-0.002619577516
-0.02338011508
-0.01728797635
-0.002371731335
0.008581987666
-0.002992212379
0.01061799265
-0.001987035877
0.009931112238
-2.612812473e-05
0.008669781209
0.002385174587
0.007509877178
0.004953452077
0.00651546052
0.00750560293
0.005648564458
0.009925304358
0.004850456259
0.01211769986
0.004062526443
0.01398922743
0.003230730188
0.0154365614
0.002304728756
0.01633959665
0.001236452016
0.01654124304
-5.085000837e-06
0.01589990068
-0.001539892652
0.01420304578
-0.003413891138
0.01125245099
-0.005870690431
0.00699286626
-0.009352785693
0.002162269562
-0.01447150304
-0.001044391645
-0.02017345361
-0.01833236802
-0.002146182089
0.0107281697
-7.203245507e-05
0.008543842868
0.003725574491
0.006133505305
0.007676368241
0.004718987376
0.01148590843
0.003700337027
0.01503323909
0.002968129842
0.01826485648
0.002416947013
0.02115036906
0.001964943646
0.02365471919
0.001558176292
0.02572608026
0.001159369077
0.02728984678
0.0007409622342
0.0282428415
0.0002834573204
0.02848173297
-0.0002439765739
0.02781622286
-0.000874382569
0.02604808137
-0.001645749383
0.02287216298
-0.002694772001
0.01788035932
-0.004360981797
0.01074921156
-0.007340355418
0.002904513671
-0.01232875554
-0.01542785443
0.01072816957
0.0192720124
0.02540551763
0.03012450504
0.03382484205
0.03679297185
0.03920991884
0.04117486252
0.0427330389
0.04389240795
0.04463337013
0.04491682752
0.04467285094
0.04379846834
0.04215271896
0.03945794695
0.03509696515
0.02775660987
0.01542785439
)
;

boundaryField
{
    movingWall
    {
        type            calculated;
        value           uniform 0;
    }
    fixedWalls
    {
        type            calculated;
        value           uniform 0;
    }
    frontAndBack
    {
        type            empty;
    }
}


// ************************************************************************* //
