/*--------------------------------*- C++ -*----------------------------------*\
  =========                 |
  \\      /  F ield         | OpenFOAM: The Open Source CFD Toolbox
   \\    /   O peration     | Website:  https://openfoam.org
    \\  /    A nd           | Version:  13
     \\/     M anipulation  |
\*---------------------------------------------------------------------------*/
FoamFile
{
    format      ascii;
    class       volVectorField;
    location    "9";
    object      U;
}
// * * * * * * * * * * * * * * * * * * * * * * * * * * * * * * * * * * * * * //

dimensions      [0 1 -1 0 0 0 0];

internalField   nonuniform List<vector> 
400
(
(5.558223453e-06 -2.860350272e-05 0)
(-0.0006549753751 0.0004048633397 -1.45090494e-23)
(-0.002115359024 0.0008889822512 0)
(-0.003901675322 0.00126279322 0)
(-0.005745886256 0.001474373473 5.807133824e-25)
(-0.007464618173 0.001507270352 4.046428928e-24)
(-0.008929728986 0.001367570205 -3.618530506e-24)
(-0.01004563007 0.001077344601 1.159084746e-23)
(-0.01073593874 0.000672006394 -2.455685427e-25)
(-0.01094231997 0.0001989475838 -4.567460486e-24)
(-0.01062912941 -0.0002862628506 6.474735208e-24)
(-0.009794400781 -0.0007203663998 -6.513645879e-23)
(-0.008482571072 -0.001042611771 -7.232327125e-23)
(-0.00679271117 -0.001202860833 -8.549941231e-23)
(-0.004883007024 -0.001173173416 5.116935374e-24)
(-0.002965272348 -0.000958607384 -4.77154378e-24)
(-0.001283420619 -0.0006050271969 -2.472298378e-22)
(-0.0001014498131 -0.0001960246431 0)
(0.0004594011493 0.0001412790306 3.851087489e-25)
(0.0002076597489 0.0002847352883 -3.34139992e-23)
(-0.0002531479946 0.0008117604066 1.302396652e-25)
(-0.002592135644 0.003255569948 1.460156026e-23)
(-0.006606991013 0.005368837158 1.414976804e-25)
(-0.01142289355 0.006704407951 -7.243904124e-25)
(-0.01637318196 0.00722645519 9.56430156e-25)
(-0.02100536735 0.006985703161 9.781438027e-24)
(-0.0249777091 0.00606863417 4.772939202e-24)
(-0.02802925674 0.004584161066 -1.124691025e-23)
(-0.02995586789 0.002667506627 1.238577233e-23)
(-0.03060907605 0.0004871564888 5.169493832e-24)
(-0.02990177023 -0.00175165696 -7.05180997e-24)
(-0.02783351999 -0.003815865849 2.576563065e-24)
(-0.02452047651 -0.005459987128 4.215604748e-23)
(-0.02020971973 -0.006457818672 -2.236737761e-24)
(-0.01528938563 -0.006643635271 4.364929224e-24)
(-0.01027281517 -0.005959090242 -1.214027836e-22)
(-0.005748574877 -0.004497750728 1.215764442e-22)
(-0.002308462493 -0.00254293921 -8.590551101e-25)
(-0.0002506521153 -0.0005901998726 8.807220948e-25)
(7.092836559e-05 0.0005416097385 0)
(-0.000396495754 0.002820661221 -2.696939218e-25)
(-0.00442139119 0.008414772924 1.500444646e-23)
(-0.0108173389 0.01263284542 -8.233469201e-24)
(-0.01839004522 0.01506351362 -1.643813614e-25)
(-0.02615630072 0.015779629 1.614909299e-25)
(-0.03346115563 0.01496118792 9.852261569e-26)
(-0.03979009204 0.01281744678 -4.485970508e-24)
(-0.04473912243 0.009572648132 -6.841967902e-25)
(-0.04798676479 0.005483350457 -1.297124086e-23)
(-0.04929006092 0.000861213228 0)
(-0.04850182676 -0.0039093964 0)
(-0.04560102802 -0.008383818278 3.021866541e-23)
(-0.04073072864 -0.01207411699 3.186609631e-23)
(-0.03423083688 -0.01450546363 -1.953765167e-24)
(-0.0266531854 -0.01529346352 5.985703071e-23)
(-0.01874421564 -0.01424193311 1.174866788e-22)
(-0.01137653655 -0.01144783687 6.766557051e-23)
(-0.005428743442 -0.007396258198 1.357779089e-24)
(-0.001474095882 -0.003022019582 -3.932931137e-25)
(-9.258435756e-05 0.0001262414104 0)
(-0.000472393564 0.005772437245 -3.771378484e-23)
(-0.006069560311 0.0155957705 -1.488939004e-23)
(-0.01474028795 0.02243247072 8.148450605e-24)
(-0.02495658895 0.02614094222 0)
(-0.03544571013 0.02701390531 0)
(-0.04538677028 0.02541862524 0)
(-0.054125331 0.0217163939 -1.725230874e-25)
(-0.06113432723 0.01626018923 6.199143364e-25)
(-0.06597742971 0.00943461404 0)
(-0.06830233424 0.001703121673 2.546989003e-24)
(-0.06786477565 -0.006357539033 3.405589996e-25)
(-0.06456727465 -0.01405254931 -3.415127293e-25)
(-0.05851242735 -0.02059393798 0)
(-0.05005991534 -0.02517489661 5.245714213e-23)
(-0.03986349468 -0.02708974759 -5.790831676e-23)
(-0.02887195517 -0.02590099946 -4.18592968e-23)
(-0.01826196851 -0.02163392393 -6.799680063e-23)
(-0.009283517336 -0.01495977208 7.408496674e-25)
(-0.00293351754 -0.007303748749 6.078494943e-23)
(-0.000226418099 -0.0009656164164 0)
(-0.0004994457687 0.009608823673 3.789992452e-23)
(-0.007567141989 0.02468372486 4.910591366e-25)
(-0.01840805776 0.03465818025 -4.798490611e-25)
(-0.03118565724 0.0398601202 0)
(-0.04437192037 0.04092070226 6.907758334e-25)
(-0.05700854276 0.03845208262 -6.812006765e-25)
(-0.06832917717 0.0329852583 3.107311772e-23)
(-0.07770024797 0.02499630489 1.213977523e-23)
(-0.08456813495 0.01498099649 3.971300348e-24)
(-0.08844641137 0.003537144036 -2.549956819e-24)
(-0.08894182764 -0.008571017545 0)
(-0.08580380169 -0.02038297172 6.010221165e-25)
(-0.07900141705 -0.03075750644 1.6523342e-23)
(-0.06881662177 -0.03845823705 -5.537557339e-23)
(-0.05592687512 -0.04231622884 2.756119115e-24)
(-0.0414557062 -0.04148442691 7.154809582e-23)
(-0.02693810381 -0.03576269129 -8.667386647e-25)
(-0.01414653658 -0.02592431123 0)
(-0.004734923856 -0.01390748129 5.073462609e-23)
(-0.0003504758993 -0.002901807481 -2.114608887e-22)
(-0.0004981010401 0.01426120726 9.780624286e-23)
(-0.008913352175 0.03555400052 -4.9640522e-25)
(-0.02177322366 0.04920236309 0)
(-0.03699102542 0.05616880096 0)
(-0.05282823477 0.05753832709 -8.219597354e-23)
(-0.06822295896 0.05422303315 -7.827419735e-23)
(-0.08232735845 0.0469322739 -3.44192593e-23)
(-0.09442076969 0.03624230901 -1.148850485e-23)
(-0.1038332077 0.02271866572 -3.347749788e-24)
(-0.1099199638 0.007046507599 -6.418241151e-24)
(-0.1120853085 -0.009859102351 4.605953513e-24)
(-0.1098401116 -0.02678396178 4.948599195e-24)
(-0.1029065029 -0.04219550744 -1.696476188e-23)
(-0.09136043402 -0.05432178068 -1.219158667e-23)
(-0.07578447186 -0.06134308677 0)
(-0.05740999419 -0.06174480287 -3.179008173e-23)
(-0.03816659971 -0.05482570826 5.187730529e-25)
(-0.02052517454 -0.04126713994 0)
(-0.007107952591 -0.02351515335 -1.109187985e-22)
(-0.000500096258 -0.005894890926 5.10216586e-22)
(-0.0004774540168 0.01963969546 -9.713126598e-23)
(-0.0100616745 0.04802193358 2.742717142e-22)
(-0.02469981083 0.06586411621 1.472242836e-22)
(-0.04213458185 0.07491079513 3.439424294e-24)
(-0.06047005227 0.07680489454 -6.955123153e-23)
(-0.07858367653 0.07280757428 8.321948453e-23)
(-0.09558446034 0.06380726417 -3.289892849e-24)
(-0.1106946237 0.05044320511 -1.509791719e-24)
(-0.1231432467 0.03328693799 2.182094496e-24)
(-0.1321206741 0.01303320872 5.747333891e-24)
(-0.1367932092 -0.009328599952 -4.604347326e-24)
(-0.136358594 -0.0323863145 -5.513501756e-24)
(-0.1301746906 -0.05421428107 -3.054912184e-23)
(-0.1179553822 -0.07241883744 -7.595539995e-24)
(-0.1000091907 -0.08431878357 -3.225885643e-26)
(-0.07752077108 -0.08738173036 0)
(-0.05276286538 -0.07996217961 0)
(-0.02904729972 -0.06226112717 -2.194004957e-24)
(-0.01036469172 -0.0371213935 2.242662328e-24)
(-0.0007066586291 -0.01033806139 9.744016108e-23)
(-0.0004376930639 0.0256104052 0)
(-0.01092979395 0.06180572151 1.917380797e-22)
(-0.02698061331 0.08430691795 8.580576529e-23)
(-0.04624698989 0.09576667577 0)
(-0.06673593957 0.09847568382 1.48396008e-22)
(-0.0873128995 0.09408853584 0)
(-0.1070907731 0.08367080691 -1.324389862e-22)
(-0.1252800999 0.06788137272 5.963999225e-24)
(-0.1410493778 0.04722009742 0)
(-0.1534527067 0.02228717587 0)
(-0.1614274103 -0.005972280458 -1.174737078e-24)
(-0.1638224531 -0.03603670293 -7.282411928e-25)
(-0.1595410881 -0.06567920392 1.224167362e-22)
(-0.147778183 -0.09186082527 -4.419660111e-23)
(-0.1283303738 -0.1108606041 -1.783940519e-24)
(-0.1020554162 -0.1187247837 8.029496677e-25)
(-0.07134407973 -0.1122274956 -8.156159878e-25)
(-0.04034926375 -0.0903838948 0)
(-0.01487126754 -0.05604280479 2.767438938e-24)
(-0.001009041667 -0.01680583198 -8.961420962e-22)
(-0.0003787482155 0.03198734482 0)
(-0.01143211894 0.07650506166 -1.092583762e-22)
(-0.02838705802 0.1040253633 -5.952990952e-22)
(-0.04889519227 0.1181970923 -3.594412388e-22)
(-0.07092630099 0.1220347349 0)
(-0.09338288511 0.1176306191 3.885642503e-22)
(-0.1154349961 0.106232413 1.169017198e-22)
(-0.1363434006 0.08848331513 -5.131607756e-24)
(-0.1552884791 0.06473752838 5.106210345e-24)
(-0.1712670333 0.03539094767 0)
(-0.1830361404 0.001203452775 2.660223663e-23)
(-0.1891614844 -0.03638145026 4.145713333e-24)
(-0.188096105 -0.07498133926 -9.191069589e-23)
(-0.1783790841 -0.1110235782 6.537957344e-23)
(-0.1590456438 -0.1396979854 -2.065567816e-22)
(-0.1302243387 -0.1552783802 0)
(-0.09395084206 -0.1521761073 0)
(-0.0549098657 -0.127079461 0)
(-0.02103009745 -0.08187700396 0)
(-0.001458395044 -0.02609276568 4.966215469e-22)
(-0.000307887668 0.03854327899 0)
(-0.01152453373 0.09161523701 -3.362767582e-22)
(-0.02875091385 0.1243423855 8.593211141e-22)
(-0.0496983493 0.1414112476 3.461867935e-22)
(-0.07234997991 0.1466263101 0)
(-0.09569112759 0.1425681209 -3.644243445e-22)
(-0.1190040266 0.1306888164 -2.981709036e-23)
(-0.1416727759 0.1116049435 3.130458369e-22)
(-0.1629869584 0.08547660089 1.656015824e-22)
(-0.182009837 0.05240312823 -3.792610933e-23)
(-0.1974907959 0.01281289723 1.594661626e-23)
(-0.2078381891 -0.032153165 -7.552592161e-24)
(-0.2111489942 -0.08020281521 3.115458804e-22)
(-0.2053403079 -0.1275204862 0)
(-0.1884990988 -0.1683944404 2.066565117e-22)
(-0.1595739894 -0.1952015626 4.713696948e-24)
(-0.1195206743 -0.1992392003 -4.783993992e-24)
(-0.07276474071 -0.1732885593 1.214515509e-22)
(-0.02923578375 -0.1163427749 -4.452275753e-24)
(-0.002131620056 -0.03923872784 0)
(-0.000248303404 0.04505259596 0)
(-0.01126408619 0.1065862264 0)
(-0.02807437457 0.1444515296 -4.834466068e-22)
(-0.04848798011 0.1643793825 -1.809030576e-23)
(-0.07053819292 0.1710335587 1.943352297e-23)
(-0.09333960277 0.1675460108 -1.920406587e-23)
(-0.1163430237 0.1556202415 -2.188541926e-23)
(-0.1391339979 0.1358719623 -2.844155793e-22)
(-0.1612245378 0.1082647012 6.511109722e-23)
(-0.1819035818 0.07255466757 4.212772131e-23)
(-0.2001169721 0.02872400965 -4.26299012e-23)
(-0.2143650507 -0.02257725227 0)
(-0.2226523706 -0.07950996171 -6.773070943e-23)
(-0.2224661313 -0.138467264 0)
(-0.2109558747 -0.1933414954 -3.478080285e-22)
(-0.1855578439 -0.2349199227 4.788448958e-22)
(-0.1453132158 -0.2509978964 0)
(-0.09306834918 -0.2287025042 -1.169953826e-22)
(-0.03976420811 -0.1609205985 1.601310684e-22)
(-0.003149610728 -0.05753302284 -3.076050924e-22)
(-0.0002522116494 0.05137531702 0)
(-0.01088522275 0.1209362257 8.887646163e-22)
(-0.02665914345 0.1635114815 -2.357765097e-23)
(-0.04548954043 0.1858994325 8.8801467e-22)
(-0.06548806598 0.1937249625 -2.416719278e-23)
(-0.08596399344 0.1907526136 2.710927013e-23)
(-0.1066028715 0.179006516 -2.68618047e-23)
(-0.1272697086 0.1591642351 -1.578854636e-23)
(-0.1478059154 0.1310451273 -5.002320123e-22)
(-0.1678811181 0.0940868599 -8.461340106e-24)
(-0.186856904 0.04778929332 9.181718294e-24)
(-0.2036247393 -0.007840020325 3.173263567e-22)
(-0.2164653835 -0.07176566155 -5.538444633e-22)
(-0.2228348563 -0.1411289884 0)
(-0.2192657704 -0.2102415467 8.383910273e-22)
(-0.2016823723 -0.2691864688 -4.511854883e-22)
(-0.1665719407 -0.3026453831 -1.435660157e-23)
(-0.1135721196 -0.2908254826 0)
(-0.05254290389 -0.2162008636 -1.559612488e-22)
(-0.004699356996 -0.08246047129 3.030925918e-22)
(-0.0004256101864 0.05759752355 1.502093689e-23)
(-0.01090086388 0.1344236821 -8.482507707e-22)
(-0.02524199594 0.180788026 -1.124091214e-21)
(-0.04148548048 0.2047120295 -8.335182263e-22)
(-0.05786431876 0.2129687292 0)
(-0.07400605157 0.2100551799 3.377309461e-23)
(-0.08992834471 0.1983894437 -7.004464503e-23)
(-0.1058560371 0.1787882213 5.62764679e-23)
(-0.1220408608 0.1510157298 2.884452903e-22)
(-0.1386383382 0.114279477 -1.081915806e-23)
(-0.1555847382 0.06765190344 0)
(-0.1724437303 0.01046311855 -3.449702607e-22)
(-0.1881324664 -0.05723749483 7.24462382e-22)
(-0.2005931027 -0.1338860687 8.556040942e-22)
(-0.206409815 -0.2151640584 -5.040783352e-22)
(-0.2005134888 -0.2918795713 4.955009564e-22)
(-0.1767921003 -0.3470768529 9.626751008e-24)
(-0.1302493262 -0.3541714696 -9.781349148e-24)
(-0.06676138396 -0.2809048814 -1.10752351e-22)
(-0.007044676517 -0.1155274352 0)
(-0.0009775781332 0.06425076709 -1.858623668e-23)
(-0.0122458398 0.1472519878 -1.294423751e-21)
(-0.02511659362 0.1957826682 1.063214582e-21)
(-0.03789474591 0.219591502 6.565487132e-22)
(-0.04904382524 0.2269449116 5.854435056e-22)
(-0.0587525528 0.2231758312 6.451398617e-22)
(-0.06752844039 0.2111326438 -4.306067017e-23)
(-0.07604758224 0.191816782 -3.352940311e-22)
(-0.08501799826 0.1650184297 2.085122835e-22)
(-0.09511087963 0.1298302556 0)
(-0.1068846752 0.08502951583 0)
(-0.1206627489 0.02938133986 2.589906326e-22)
(-0.1362868797 -0.0380131055 8.404544966e-23)
(-0.1527132437 -0.1171694054 -2.682677573e-22)
(-0.1673867451 -0.2059349845 -5.269409368e-23)
(-0.1753249463 -0.2975332332 1.340251206e-22)
(-0.1687149319 -0.375938255 -3.250156958e-22)
(-0.1373512168 -0.4101347086 -2.828576362e-23)
(-0.08034920799 -0.3507288724 1.106009771e-22)
(-0.01049384508 -0.157916988 -6.213359172e-22)
(-0.002329283893 0.07269330487 0)
(-0.01648557361 0.1603336785 2.09675794e-21)
(-0.02816867283 0.2083411913 0)
(-0.03660472198 0.2293910827 -1.321613044e-21)
(-0.04076419206 0.2338148795 6.386867024e-23)
(-0.04183506136 0.2278356082 -6.012833347e-22)
(-0.04104822688 0.214665088 -4.632429507e-22)
(-0.0396320404 0.1954427221 8.060247019e-22)
(-0.03875877074 0.1699985984 -1.826281765e-22)
(-0.03956464981 0.1373953762 0)
(-0.04315309694 0.09627322855 0)
(-0.05054597179 0.04505976521 2.51864403e-23)
(-0.06255487529 -0.01784933545 -5.875768272e-22)
(-0.07942905438 -0.09385962371 -4.216944354e-22)
(-0.1002364431 -0.1832600917 4.579118933e-22)
(-0.1214625725 -0.2830941312 -6.322974914e-22)
(-0.1355629612 -0.3814722101 8.410183774e-23)
(-0.1278793956 -0.4479222623 4.228836033e-23)
(-0.08945342347 -0.4173977515 5.714572965e-22)
(-0.01529191455 -0.2098153359 6.201650172e-22)
(-0.005240432541 0.08557852209 0)
(-0.02595934345 0.1751252715 1.482163663e-22)
(-0.03645687848 0.2181277011 -4.831404035e-23)
(-0.03900347438 0.2324652732 7.49124867e-22)
(-0.03369759304 0.2312611482 -6.854837824e-22)
(-0.02343700753 0.2214573651 4.641451962e-23)
(-0.01045916981 0.206346693 -1.012510683e-22)
(0.003373218929 0.1869945481 -3.297521889e-22)
(0.01646214658 0.1631821472 2.017165853e-22)
(0.02731947576 0.1339574553 0)
(0.03445181785 0.09794392784 0)
(0.0363196689 0.05348190071 -2.847845397e-22)
(0.03129334938 -0.00132055783 0)
(0.01790480483 -0.06868250476 -5.462465325e-22)
(-0.004876812677 -0.1508453308 -1.197738949e-23)
(-0.03615383395 -0.2490557726 2.529062487e-23)
(-0.07150375379 -0.3584538255 2.128267405e-22)
(-0.09385115979 -0.4560587394 5.031362915e-24)
(-0.08782925595 -0.468184311 -5.849332717e-22)
(-0.02109455492 -0.2688404861 0)
(-0.01114821842 0.1085602575 0)
(-0.04306683298 0.1940052771 -8.712266805e-22)
(-0.0493828369 0.2243469324 -5.357188085e-22)
(-0.04157743056 0.2262129196 4.498766875e-22)
(-0.02208020485 0.2160734972 -1.778277219e-24)
(0.003580389864 0.2008454725 -4.493533846e-23)
(0.03201896724 0.1832409218 5.583594185e-22)
(0.06082942291 0.1638241839 -2.709374469e-23)
(0.08816793606 0.1421108304 -2.023039721e-22)
(0.1123881607 0.1170748071 3.083609821e-23)
(0.1318140672 0.08739045226 -3.370528373e-23)
(0.1446231654 0.0515154072 -3.646137386e-23)
(0.1486272111 0.007679853744 3.174818027e-22)
(0.1415036004 -0.04650778844 6.066424185e-22)
(0.1205606886 -0.1140585284 -5.068398369e-22)
(0.08388459538 -0.1994355947 -1.62452509e-22)
(0.02990729038 -0.3060105869 1.508716095e-22)
(-0.02509857723 -0.4232179225 7.286730346e-23)
(-0.06555781975 -0.4862922975 1.909687194e-21)
(-0.02518323817 -0.3284787541 2.950841893e-21)
(-0.02002600248 0.1462660777 -4.356828798e-23)
(-0.06443008542 0.2111759014 4.383794499e-23)
(-0.05155399288 0.2170873033 9.926910322e-22)
(-0.02093795655 0.200382289 -6.426294042e-24)
(0.02174875226 0.1796064743 0)
(0.06840454407 0.1594214264 4.304396446e-23)
(0.1153559918 0.1406117092 -2.23606149e-22)
(0.1603901646 0.1226577258 -8.865497971e-23)
(0.201992681 0.1045918682 3.610494401e-23)
(0.2388023942 0.08528593358 -1.669589773e-23)
(0.2693156446 0.06353964306 3.374516232e-23)
(0.291770823 0.03808558799 -6.509321206e-23)
(0.3036366393 0.007444919886 -9.199487446e-23)
(0.3023714203 -0.0299667419 1.509766642e-22)
(0.2842784673 -0.07709020742 0)
(0.2453697702 -0.1393851321 1.516833476e-22)
(0.179741076 -0.2263515121 2.549945495e-22)
(0.09504451504 -0.3440999067 0)
(-0.007216199818 -0.4549029526 -3.668622893e-21)
(-0.01930749973 -0.3774605059 -2.888543224e-21)
(-0.02585990117 0.2278862745 -9.49569713e-22)
(-0.03988795924 0.2239631886 -1.382997826e-22)
(0.03645755447 0.1809373208 -2.317562302e-22)
(0.1085187588 0.1447202007 -1.181575704e-22)
(0.1806213339 0.116684625 -4.279937387e-23)
(0.2473058462 0.09568075266 9.68886109e-23)
(0.3077944309 0.0795050404 -1.388751415e-22)
(0.3619864077 0.06621400046 1.274654084e-22)
(0.4097794238 0.05434988654 -8.456840551e-23)
(0.4507620525 0.04278550207 1.133184936e-25)
(0.4840841425 0.03058541005 1.505852483e-23)
(0.508335376 0.01692012714 7.896235371e-23)
(0.5216650815 0.0009441737813 -1.795062392e-22)
(0.5216712898 -0.01822204344 -1.609973289e-22)
(0.5041146475 -0.04252405432 -4.259862349e-23)
(0.4650792537 -0.07611426231 0)
(0.3947006219 -0.1285322504 -1.827066615e-22)
(0.2911857654 -0.2208281866 8.12725189e-22)
(0.1194878893 -0.3524831173 1.628328089e-21)
(0.02664059013 -0.3775114273 2.170950795e-21)
(0.2143515285 0.1348057495 9.844570146e-22)
(0.2778250752 0.0987836424 0)
(0.431876675 0.05814142263 -2.585276938e-22)
(0.5305671561 0.03845067771 -1.737189923e-22)
(0.6015350605 0.02618479111 0)
(0.6566427238 0.01825599514 -5.957456329e-23)
(0.7007423937 0.0130804664 6.285682801e-23)
(0.7365945523 0.009511074814 -1.764544889e-23)
(0.7658032382 0.006806593695 2.829491267e-23)
(0.7890718482 0.004500913184 2.271044243e-23)
(0.8064215648 0.002285532621 0)
(0.8174155156 -6.690644087e-05 -2.834322951e-23)
(0.8210416924 -0.00262723888 0)
(0.8158825916 -0.005641603332 2.721421734e-23)
(0.7989751341 -0.009568899042 1.435518242e-23)
(0.7679752544 -0.0149894287 -5.774265392e-23)
(0.7106883463 -0.02503936021 -2.523851423e-22)
(0.6235425553 -0.04206288565 -6.901234849e-22)
(0.423006746 -0.09185040424 0)
(0.2705613964 -0.152411783 -2.117819976e-21)
)
;

boundaryField
{
    movingWall
    {
        type            fixedValue;
        value           uniform (1 0 0);
    }
    fixedWalls
    {
        type            fixedValue;
        value           uniform (0 0 0);
    }
    frontAndBack
    {
        type            empty;
    }
}


// ************************************************************************* //
