/*--------------------------------*- C++ -*----------------------------------*\
  =========                 |
  \\      /  F ield         | OpenFOAM: The Open Source CFD Toolbox
   \\    /   O peration     | Website:  https://openfoam.org
    \\  /    A nd           | Version:  13
     \\/     M anipulation  |
\*---------------------------------------------------------------------------*/
FoamFile
{
    format      ascii;
    class       volVectorField;
    location    "9";
    object      U_0;
}
// * * * * * * * * * * * * * * * * * * * * * * * * * * * * * * * * * * * * * //

dimensions      [0 1 -1 0 0 0 0];

internalField   nonuniform List<vector> 
400
(
(5.562083855e-06 -2.854721491e-05 0)
(-0.0006548986198 0.0004048420429 -1.460233301e-23)
(-0.002115066917 0.0008888647741 0)
(-0.003901091771 0.001262600077 0)
(-0.00574498978 0.001474136043 5.826677077e-25)
(-0.007463435581 0.001507023312 4.040562584e-24)
(-0.008928320262 0.001367347931 -3.678959829e-24)
(-0.01004407738 0.001077175964 1.152951206e-23)
(-0.01073434009 0.0006719107628 -2.451161466e-25)
(-0.01094078385 0.0001989328075 -4.560815203e-24)
(-0.01062776323 -0.0002862059003 6.467923009e-24)
(-0.009793296328 -0.0007202567751 -6.508410512e-23)
(-0.008481794247 -0.001042479548 -7.227441708e-23)
(-0.006792289821 -0.001202740916 -8.545076562e-23)
(-0.004882921604 -0.001173098059 5.114244806e-24)
(-0.002965453434 -0.0009585985135 -4.769124127e-24)
(-0.001283761587 -0.0006050881447 -2.470955868e-22)
(-0.0001017989697 -0.0001961352842 0)
(0.0004591491647 0.0001411541647 3.846870966e-25)
(0.0002075931688 0.0002846393329 -3.336999365e-23)
(-0.0002530864828 0.000811732145 1.294281087e-25)
(-0.00259167688 0.003255089126 1.470081257e-23)
(-0.006605792621 0.005367919671 1.434402331e-25)
(-0.01142079068 0.006703210884 -7.289185212e-25)
(-0.01637015359 0.007225155826 9.631293151e-25)
(-0.02100150264 0.006984470178 9.850955218e-24)
(-0.02497318198 0.006067615751 4.702242749e-24)
(-0.02802430254 0.004583472823 -1.118418707e-23)
(-0.02995076101 0.002667221093 1.23554747e-23)
(-0.03060411484 0.0004872930796 5.161375351e-24)
(-0.02989723945 -0.001751122493 -7.044026305e-24)
(-0.02782965943 -0.00381502619 2.575992368e-24)
(-0.02451746421 -0.005458978942 4.212753009e-23)
(-0.02020763996 -0.00645680634 -2.235307685e-24)
(-0.01528821162 -0.006642785123 4.362168435e-24)
(-0.01027240565 -0.005958538935 -1.213200818e-22)
(-0.005748691548 -0.004497571288 1.214995096e-22)
(-0.002308791846 -0.002543105642 -8.580395928e-25)
(-0.0002509679138 -0.0005905803846 8.796682044e-25)
(7.084947716e-05 0.0005413213157 0)
(-0.0003963946356 0.002820240155 -2.68572247e-25)
(-0.004420479643 0.00841325612 1.483673893e-23)
(-0.01081512272 0.0126304467 -8.39446104e-24)
(-0.01838629986 0.0150606151 -1.668383463e-25)
(-0.02615102411 0.01577662412 1.638972925e-25)
(-0.03345450377 0.01495843355 9.621122499e-26)
(-0.03978234522 0.01281524326 -4.417376974e-24)
(-0.04473065198 0.009571222963 -6.798456219e-25)
(-0.04797800018 0.005482843741 -1.293940465e-23)
(-0.0492814424 0.0008616628153 0)
(-0.04849379006 -0.003908058434 0)
(-0.04559396184 -0.008381773972 3.019078815e-23)
(-0.04072491591 -0.01207163978 3.184149592e-23)
(-0.03422643736 -0.01450288995 -1.952361772e-24)
(-0.02665020921 -0.01529114707 5.981284668e-23)
(-0.01874251468 -0.01424018598 1.174064829e-22)
(-0.0113758221 -0.0114468606 6.759672678e-23)
(-0.005428623228 -0.007396073724 1.35571818e-24)
(-0.001474211867 -0.003022415799 -3.922870147e-25)
(-9.260515105e-05 0.0001258275714 0)
(-0.0004722650012 0.005771378851 -3.753162162e-23)
(-0.006068216951 0.01559270758 -1.472137972e-23)
(-0.01473708944 0.02242798304 8.308961998e-24)
(-0.0249512592 0.02613572945 0)
(-0.03543826968 0.02700863278 0)
(-0.04537743573 0.0254138746 0)
(-0.05411447109 0.02171264315 -1.703014461e-25)
(-0.06112242021 0.01625779508 5.844474014e-25)
(-0.06596502164 0.009433794106 0)
(-0.06829000172 0.001703937459 2.540033897e-24)
(-0.0678530815 -0.006355206264 3.40148561e-25)
(-0.064556721 -0.01404897502 -3.411008573e-25)
(-0.05850341749 -0.02058954463 0)
(-0.05005271646 -0.02517021542 5.241440667e-23)
(-0.03985820421 -0.02708535494 -5.786552753e-23)
(-0.02886848112 -0.02589743122 -4.18219741e-23)
(-0.01826003409 -0.02163156851 -6.792708564e-23)
(-0.00928269514 -0.01495875234 7.407096366e-25)
(-0.002933353107 -0.007303819675 6.083167684e-23)
(-0.0002263992179 -0.0009660459561 0)
(-0.0004993095858 0.009606902925 3.771681849e-23)
(-0.007565449997 0.0246786651 4.940373459e-25)
(-0.01840404094 0.03465107616 -4.827480911e-25)
(-0.0311789909 0.03985206834 0)
(-0.04436263855 0.04091268137 6.933304961e-25)
(-0.05699690344 0.03844492052 -6.837136518e-25)
(-0.06831560834 0.03297962226 3.113980781e-23)
(-0.07768529953 0.02499268784 1.220473721e-23)
(-0.08455243317 0.0149796979 3.98561556e-24)
(-0.08843062042 0.003538250459 -2.542991529e-24)
(-0.08892660884 -0.008567642523 0)
(-0.08578976637 -0.02037769333 6.003454184e-25)
(-0.07898908872 -0.03075088709 1.650420611e-23)
(-0.06880639939 -0.03845100233 -5.533027171e-23)
(-0.05591898721 -0.04230919466 2.75375523e-24)
(-0.0414501737 -0.04147839351 7.1480943e-23)
(-0.02693471762 -0.03575829918 -8.657251869e-25)
(-0.01414486754 -0.02592186892 0)
(-0.004734415699 -0.01390680271 5.072048402e-23)
(-0.0003504208671 -0.002902063523 -2.114681019e-22)
(-0.0004979759233 0.01425825882 9.800207913e-23)
(-0.008911444357 0.03554661921 -4.979852312e-25)
(-0.02176867209 0.04919226344 0)
(-0.03698346006 0.05615753236 0)
(-0.05281768483 0.05752720676 -8.227547959e-23)
(-0.06820969619 0.05421314333 -7.834165136e-23)
(-0.08231183406 0.04692447168 -3.449227046e-23)
(-0.09440356281 0.03623722309 -1.151795275e-23)
(-0.1038149789 0.02271668185 -3.360301102e-24)
(-0.1099014179 0.007047751978 -6.422246522e-24)
(-0.1120671652 -0.009854769491 4.609547851e-24)
(-0.1098230587 -0.02677696893 4.954211238e-24)
(-0.102891164 -0.04218652244 -1.695773779e-23)
(-0.09134734244 -0.05431169714 -1.216770108e-23)
(-0.07577401126 -0.06133295303 0)
(-0.05740234335 -0.06173570974 -3.175820052e-23)
(-0.03816167415 -0.05481861662 5.17964666e-25)
(-0.02052259216 -0.0412626508 0)
(-0.007107075946 -0.02351326499 -1.109522179e-22)
(-0.0005000079476 -0.005894795007 5.102095272e-22)
(-0.0004773575194 0.01963564144 -9.732516083e-23)
(-0.01005972879 0.04801208535 2.744561541e-22)
(-0.02469511645 0.06585085311 1.473105534e-22)
(-0.04212673013 0.07489614286 3.441954065e-24)
(-0.06045904982 0.07679051408 -6.954394856e-23)
(-0.07856978053 0.0727947972 8.329105263e-23)
(-0.09556810952 0.06379712789 -3.291733532e-24)
(-0.1106763839 0.05043646603 -1.510366574e-24)
(-0.1231237632 0.03328406705 2.182875407e-24)
(-0.1321006345 0.01303438336 5.751136766e-24)
(-0.1367733409 -0.009323497914 -4.607675851e-24)
(-0.1363396041 -0.03237777189 -5.519616354e-24)
(-0.1301572417 -0.05420301289 -3.053750737e-23)
(-0.1179401047 -0.07240584822 -7.622796473e-24)
(-0.09999660933 -0.08430531041 -3.172306911e-26)
(-0.07751124335 -0.08736914561 0)
(-0.05275648857 -0.07995181424 0)
(-0.02904381376 -0.06225398966 -2.194219164e-24)
(-0.0103634376 -0.0371178211 2.242893239e-24)
(-0.0007065407638 -0.01033741171 9.741899365e-23)
(-0.0004376420267 0.02560527928 0)
(-0.01092802208 0.06179348531 1.917175151e-22)
(-0.02697624901 0.0842905887 8.579134848e-23)
(-0.04623960078 0.09574873937 0)
(-0.06672549727 0.0984581306 1.484657785e-22)
(-0.08729962411 0.09407293013 0)
(-0.1070750618 0.08365834672 -1.324505349e-22)
(-0.1252624685 0.06787292109 5.96483095e-24)
(-0.141030408 0.04721619008 0)
(-0.1534330089 0.02228801547 0)
(-0.1614076895 -0.005966829858 -1.17464294e-24)
(-0.1638033453 -0.0360270007 -7.281365278e-25)
(-0.1595231594 -0.06566602088 1.224025218e-22)
(-0.1477620784 -0.09184521668 -4.41829752e-23)
(-0.1283166924 -0.1108439152 -1.783806674e-24)
(-0.1020446717 -0.1187086027 8.030467763e-25)
(-0.07133659159 -0.1122135193 -8.157225508e-25)
(-0.04034499302 -0.0903736324 0)
(-0.01486964991 -0.05603711178 2.767243683e-24)
(-0.001008893814 -0.01680442673 -8.960523614e-22)
(-0.0003787567094 0.0319813068 0)
(-0.0114307446 0.07649076826 -1.09355636e-22)
(-0.02838353266 0.1040063637 -5.954309365e-22)
(-0.04888908383 0.1181762765 -3.594888347e-22)
(-0.0709175431 0.1220143918 0)
(-0.09337164997 0.1176125224 3.885795741e-22)
(-0.1154216258 0.1062178976 1.169118869e-22)
(-0.1363283439 0.08847332345 -5.131318504e-24)
(-0.1552722401 0.06473263317 5.105921399e-24)
(-0.1712501343 0.03539136279 0)
(-0.1830190044 0.001209048184 2.659785357e-23)
(-0.1891445943 -0.03637102831 4.144949418e-24)
(-0.1880799868 -0.0749668428 -9.189526749e-23)
(-0.1783642009 -0.11100602 6.536815125e-23)
(-0.159032526 -0.1396786871 -2.065118704e-22)
(-0.1302135608 -0.1552590003 0)
(-0.09394293282 -0.1521586056 0)
(-0.05490509928 -0.1270658654 0)
(-0.0210281757 -0.08186886415 0)
(-0.001458216878 -0.02609041649 4.965676564e-22)
(-0.0003079640958 0.03853661457 0)
(-0.01152376222 0.09159946777 -3.363383912e-22)
(-0.02874870777 0.1243214108 8.594162348e-22)
(-0.04969430711 0.1413882681 3.462330526e-22)
(-0.07234400015 0.1466038676 0)
(-0.09568332863 0.1425481718 -3.644393981e-22)
(-0.1189946851 0.1306728061 -2.9815831e-23)
(-0.1416622581 0.1115938611 3.130168129e-22)
(-0.1629756549 0.08547101425 1.655813231e-22)
(-0.1819981109 0.05240322256 -3.792054514e-23)
(-0.1974789188 0.01281852315 1.594419804e-23)
(-0.2078263814 -0.03214250929 -7.551189722e-24)
(-0.2111374447 -0.08018780226 3.114912043e-22)
(-0.2053292081 -0.1275020144 0)
(-0.1884887553 -0.1683736665 2.066115896e-22)
(-0.1595648846 -0.1951800083 4.712551128e-24)
(-0.1195134491 -0.1992188668 -4.78283894e-24)
(-0.07276000873 -0.1732718719 1.214224823e-22)
(-0.02923369642 -0.116332084 -4.451546556e-24)
(-0.002131414541 -0.03923528945 0)
(-0.0002484485779 0.04504569711 0)
(-0.01126407274 0.1065697782 0)
(-0.02807386955 0.1444295371 -4.834837127e-22)
(-0.04848664528 0.164355229 -1.809099511e-23)
(-0.07053589653 0.1710099781 1.943319551e-23)
(-0.09333640245 0.1675251099 -1.920373572e-23)
(-0.1163391192 0.1556035478 -2.188353188e-23)
(-0.1391296603 0.1358604726 -2.843885645e-22)
(-0.1612200332 0.1082589229 6.510386049e-23)
(-0.1818991015 0.07255467264 4.212159428e-23)
(-0.2001125767 0.02872951621 -4.26230893e-23)
(-0.2143606755 -0.02256679939 0)
(-0.2226478488 -0.07949527167 -6.771152338e-23)
(-0.2224612724 -0.1384491116 0)
(-0.2109506117 -0.1933207735 -3.477546801e-22)
(-0.1855523778 -0.2348978046 4.78765261e-22)
(-0.1453081084 -0.2509761154 0)
(-0.09306444721 -0.2286835828 -1.169670502e-22)
(-0.03976220736 -0.1609076162 1.601056566e-22)
(-0.003149387687 -0.05752844309 -3.075737699e-22)
(-0.0002524185166 0.05136864265 0)
(-0.01088604621 0.1209200417 8.88769592e-22)
(-0.02666055907 0.1634896125 -2.357798142e-23)
(-0.04549130176 0.1858752869 8.880089142e-22)
(-0.06549000979 0.1937013873 -2.41669228e-23)
(-0.08596609566 0.1907318264 2.710755972e-23)
(-0.1066052231 0.1789900997 -2.68601049e-23)
(-0.1272724524 0.1591531652 -1.578684669e-23)
(-0.1478091701 0.1310398139 -5.001761106e-22)
(-0.1678849013 0.09408721396 -8.460317326e-24)
(-0.1868610716 0.04779483629 9.180523832e-24)
(-0.2036289973 -0.007830011552 3.172914823e-22)
(-0.2164692541 -0.07175194884 -5.537763393e-22)
(-0.2228377679 -0.1411122814 0)
(-0.2192672471 -0.2102224588 8.382863442e-22)
(-0.2016822023 -0.2691656903 -4.51110642e-22)
(-0.1665703821 -0.3026240798 -1.435432188e-23)
(-0.1135700053 -0.2908058376 0)
(-0.05254136688 -0.2161863408 -1.559362849e-22)
(-0.004699137717 -0.08245485625 3.030618102e-22)
(-0.0004258655068 0.05759154898 1.502076238e-23)
(-0.01090251248 0.1344087564 -8.482553598e-22)
(-0.02524534907 0.180767496 -1.124085253e-21)
(-0.04149040353 0.2046891469 -8.335129569e-22)
(-0.05787060793 0.2129463506 0)
(-0.07401356329 0.2100355772 3.377108636e-23)
(-0.08993700563 0.1983742246 -7.00397682e-23)
(-0.1058658017 0.1787783222 5.627175762e-23)
(-0.122051657 0.1510114554 2.884146697e-22)
(-0.1386500074 0.1142805723 -1.08180784e-23)
(-0.1555969827 0.06765768636 0)
(-0.1724560684 0.01047266717 -3.449318022e-22)
(-0.1881442588 -0.05722508162 7.243980889e-22)
(-0.2006036027 -0.1338715198 8.555451102e-22)
(-0.2064182397 -0.2151477933 -5.040244809e-22)
(-0.2005192237 -0.2918618136 4.954683712e-22)
(-0.176794954 -0.3470580439 9.625336404e-24)
(-0.1302498213 -0.3541530351 -9.779920978e-24)
(-0.06676075807 -0.280890075 -1.107567002e-22)
(-0.007044500428 -0.115521106 0)
(-0.00097786456 0.06424593021 -1.858591637e-23)
(-0.01224820604 0.1472392605 -1.294413365e-21)
(-0.02512167945 0.195764643 1.063208925e-21)
(-0.03790254154 0.2195710811 6.565440428e-22)
(-0.04905407639 0.2269248287 5.854343773e-22)
(-0.05876495348 0.2231583306 6.45120221e-22)
(-0.06754268751 0.2111193155 -4.305795724e-23)
(-0.07606336852 0.1918085178 -3.352741941e-22)
(-0.08503500079 0.1650154596 2.08498453e-22)
(-0.09512873894 0.129832213 0)
(-0.1069029664 0.08503558416 0)
(-0.1206809556 0.02939045249 2.589767961e-22)
(-0.1363043768 -0.03800203339 8.405473027e-23)
(-0.1527293 -0.1171571874 -2.682323757e-22)
(-0.1674005385 -0.2059220022 -5.269152833e-23)
(-0.1753356566 -0.2975194296 1.340452637e-22)
(-0.1687219581 -0.3759234293 -3.250120819e-22)
(-0.1373545871 -0.410119327 -2.828056277e-23)
(-0.08034985148 -0.3507153535 1.106053474e-22)
(-0.01049376946 -0.1579104934 -6.213009922e-22)
(-0.002329576332 0.07268994997 0)
(-0.01648843682 0.1603239201 2.096744955e-21)
(-0.02817503651 0.2083266522 0)
(-0.03661471338 0.229374133 -1.321612592e-21)
(-0.04077751373 0.233797972 6.387822805e-23)
(-0.04185122683 0.2278208569 -6.01265052e-22)
(-0.04106666839 0.2146540077 -4.632290163e-22)
(-0.03965214129 0.1954361502 8.059847372e-22)
(-0.03877992007 0.1699967569 -1.826157433e-22)
(-0.03958627503 0.1373978815 0)
(-0.04317466281 0.09627925208 0)
(-0.05056698671 0.04506820877 2.519120573e-23)
(-0.06257485038 -0.01783962327 -5.875521942e-22)
(-0.07944747374 -0.09384954808 -4.216792995e-22)
(-0.100252714 -0.1832501399 4.579151772e-22)
(-0.1214759695 -0.2830842523 -6.322866611e-22)
(-0.1355727031 -0.3814618619 8.407447858e-23)
(-0.1278850675 -0.4479110791 4.228202433e-23)
(-0.08945537637 -0.4173869593 5.714252221e-22)
(-0.01529198686 -0.2098093924 6.201301836e-22)
(-0.005240686964 0.08557682814 0)
(-0.02596231534 0.1751189416 1.482247195e-22)
(-0.03646372285 0.2181172953 -4.831452777e-23)
(-0.03901447823 0.2324524915 7.491289423e-22)
(-0.03371246031 0.2312479906 -6.854836044e-22)
(-0.02345511696 0.2214457066 4.641401908e-23)
(-0.01047975583 0.2063378995 -1.012566716e-22)
(0.003351054121 0.1869894243 -3.297377132e-22)
(0.01643927486 0.1631809339 2.017104385e-22)
(0.02729664589 0.1339598726 0)
(0.03442966865 0.09794928003 0)
(0.03629866416 0.05348922142 -2.847754483e-22)
(0.03127386791 -0.00131232117 0)
(0.01788711351 -0.06867433581 -5.46254466e-22)
(-0.004892503884 -0.1508378603 -1.196417946e-23)
(-0.03616714716 -0.2490491037 2.529292489e-23)
(-0.07151403356 -0.3584474507 2.128523849e-22)
(-0.09385782271 -0.4560518671 5.028707201e-24)
(-0.08783211419 -0.4681770453 -5.849000788e-22)
(-0.02109479773 -0.2688358053 0)
(-0.01114835594 0.1085601095 0)
(-0.04306927682 0.1940023044 -8.71231651e-22)
(-0.04938886394 0.2243407483 -5.357339457e-22)
(-0.04158754504 0.2262045187 4.498956154e-22)
(-0.02209423448 0.2160642172 -1.778583133e-24)
(0.003563045983 0.200836949 -4.493648629e-23)
(0.03199910124 0.1832342828 5.583587957e-22)
(0.06080802767 0.1638201798 -2.709323231e-23)
(0.08814600716 0.1421097403 -2.022973611e-22)
(0.1123665865 0.1170765124 3.083552493e-23)
(0.1317935774 0.08739447489 -3.370482571e-23)
(0.1446042781 0.05152101724 -3.646135055e-23)
(0.1486102085 0.007686214485 3.174851751e-22)
(0.1414885795 -0.04650157131 6.066525831e-22)
(0.1205476865 -0.1140531311 -5.068585877e-22)
(0.08387360763 -0.1994312953 -1.624858723e-22)
(0.02989854502 -0.3060071348 1.508338664e-22)
(-0.02510466898 -0.423214548 7.286301319e-23)
(-0.06556080842 -0.4862884453 1.909616674e-21)
(-0.02518360258 -0.3284757773 2.950763498e-21)
(-0.02002591488 0.1462669024 -4.356891561e-23)
(-0.06443119857 0.2111754157 4.383866566e-23)
(-0.05155753408 0.2170846094 9.927268601e-22)
(-0.02094483421 0.200377709 -6.418204027e-24)
(0.02173846955 0.1796009317 0)
(0.06839127787 0.1594159718 4.304553276e-23)
(0.1153401752 0.140607209 -2.23610157e-22)
(0.1603726804 0.122654794 -8.865615173e-23)
(0.2019744887 0.1045908053 3.610496519e-23)
(0.238784415 0.08528674374 -1.669547674e-23)
(0.2692986772 0.0635420607 3.374470413e-23)
(0.2917554783 0.03808914006 -6.509354089e-23)
(0.3036232599 0.007449020279 -9.199376038e-23)
(0.3023601208 -0.02996270663 1.509849625e-22)
(0.2842692018 -0.0770867794 0)
(0.2453623065 -0.1393826477 1.517216132e-22)
(0.179735225 -0.2263499538 2.549844791e-22)
(0.09504026192 -0.3440987758 0)
(-0.007218492939 -0.4549015878 -3.668501128e-21)
(-0.01930785644 -0.3774592443 -2.888467091e-21)
(-0.02585965056 0.2278871368 -9.49576511e-22)
(-0.03988755485 0.2239637961 -1.383037164e-22)
(0.03645713896 0.1809368107 -2.317654425e-22)
(0.1085164874 0.144718504 -1.181612447e-22)
(0.1806166445 0.1166823072 -4.280286164e-23)
(0.2472986382 0.09567821789 9.689713217e-23)
(0.3077849064 0.07950280693 -1.38883286e-22)
(0.3619751536 0.066212451 1.274680232e-22)
(0.4097672148 0.05434923358 -8.456849069e-23)
(0.4507497224 0.04278578891 1.133224699e-25)
(0.48407247 0.03058652155 1.505858387e-23)
(0.5083250106 0.0169218253 7.896290505e-23)
(0.521656407 0.0009461181885 -1.795110156e-22)
(0.5216644615 -0.01822014619 -1.61005378e-22)
(0.5041096004 -0.04252250146 -4.260601217e-23)
(0.4650756795 -0.07611325732 0)
(0.3946981134 -0.1285318264 -1.826796337e-22)
(0.2911839738 -0.2208281291 8.1269661e-22)
(0.1194867646 -0.3524830396 1.628283357e-21)
(0.02664030868 -0.3775112662 2.170928782e-21)
(0.2143517902 0.1348060083 9.84463976e-22)
(0.2778258939 0.09878397754 0)
(0.4318776029 0.05814158648 -2.585397944e-22)
(0.530567549 0.03845061594 -1.737329829e-22)
(0.6015343682 0.02618459137 0)
(0.6566407085 0.01825572639 -5.95802518e-23)
(0.7007390861 0.01308022728 6.286075422e-23)
(0.7365902414 0.009510937313 -1.764587639e-23)
(0.7657983722 0.006806596083 2.82954074e-23)
(0.7890669322 0.004501060495 2.271046995e-23)
(0.8064170734 0.002285796613 0)
(0.8174118107 -6.657195981e-05 -2.834343288e-23)
(0.8210389916 -0.002626926711 0)
(0.8158809483 -0.005641343402 2.721705937e-23)
(0.7989743861 -0.00956873195 1.435927152e-23)
(0.7679751211 -0.01498937874 -5.773804285e-23)
(0.7106884918 -0.02503941307 -2.523694394e-22)
(0.6235426892 -0.04206298466 -6.901017345e-22)
(0.4230067455 -0.09185049954 0)
(0.2705613733 -0.152411829 -2.117799097e-21)
)
;

boundaryField
{
    movingWall
    {
        type            calculated;
        value           uniform (1 0 0);
    }
    fixedWalls
    {
        type            calculated;
        value           uniform (0 0 0);
    }
    frontAndBack
    {
        type            empty;
    }
}


// ************************************************************************* //
