/*--------------------------------*- C++ -*----------------------------------*\
  =========                 |
  \\      /  F ield         | OpenFOAM: The Open Source CFD Toolbox
   \\    /   O peration     | Website:  https://openfoam.org
    \\  /    A nd           | Version:  13
     \\/     M anipulation  |
\*---------------------------------------------------------------------------*/
FoamFile
{
    format      ascii;
    class       vectorField;
    location    "24.23";
    object      U_all;
}
// * * * * * * * * * * * * * * * * * * * * * * * * * * * * * * * * * * * * * //


400
(
(1.088394112e-05 -3.789690365e-05 0)
(-0.0006661975473 0.0004130128866 -1.543793166e-23)
(-0.00218529449 0.0009203378433 0)
(-0.00404760733 0.00131269427 0)
(-0.005971501258 0.001534963312 6.83324313e-25)
(-0.00776229382 0.001569744742 4.15271249e-24)
(-0.009283961122 0.001423473286 -7.334654168e-24)
(-0.01043529717 0.001119655532 7.570582661e-24)
(-0.01113615105 0.0006960433352 -2.098553494e-25)
(-0.0113264738 0.0002030689306 -3.999459781e-24)
(-0.01097120485 -0.0003002129536 5.808804504e-24)
(-0.01007186767 -0.0007474733462 -5.933766538e-23)
(-0.008679552008 -0.00107550843 -6.557076405e-23)
(-0.006902665768 -0.001232993085 -7.788988304e-23)
(-0.00491068272 -0.001192604036 4.576579506e-24)
(-0.002927281902 -0.0009619123544 -4.141095887e-24)
(-0.001205414787 -0.0005912318875 -2.00089523e-22)
(-1.919463154e-05 -0.0001699235278 0)
(0.0005180631756 0.0001720364872 1.51898018e-25)
(0.0002227280151 0.0003059466793 -2.674959915e-24)
(-0.0002634017828 0.0008288262005 1.388733191e-25)
(-0.00270318336 0.003383575213 1.55346174e-23)
(-0.006906819112 0.005604076593 1.54361188e-25)
(-0.01195146843 0.007007683468 -8.471092986e-25)
(-0.01713379817 0.007553222581 1.158532211e-24)
(-0.02197376099 0.0072936857 1.30293596e-23)
(-0.02610890093 0.006321478564 1.427605066e-24)
(-0.02926362188 0.004753918631 -7.321294785e-24)
(-0.03122465167 0.002737041819 1.017233243e-23)
(-0.03183999323 0.0004524626065 4.515557306e-24)
(-0.0310257709 -0.00188393019 -6.324528133e-24)
(-0.02879159324 -0.004022694475 2.960602708e-24)
(-0.02527014989 -0.005707951565 3.89777264e-23)
(-0.02073108632 -0.006707002373 -1.956279734e-24)
(-0.01558912324 -0.006853794127 3.757606501e-24)
(-0.01038493467 -0.006097233528 -9.752037453e-23)
(-0.005730285259 -0.00454610025 9.648949097e-23)
(-0.002233477063 -0.002507467901 -3.979989736e-25)
(-0.0001818765099 -0.0005025058823 4.080365804e-25)
(8.342040053e-05 0.0006098198816 0)
(-0.0004188007219 0.002934843636 -2.915905876e-25)
(-0.004647537141 0.008803322308 1.709398033e-23)
(-0.01137107975 0.01323938052 -8.211785379e-24)
(-0.01932577632 0.01579081317 -2.063420778e-25)
(-0.02747197166 0.01652874994 2.027095478e-25)
(-0.03511508523 0.01564328778 8.050301175e-27)
(-0.04171031196 0.01335908747 -1.258882451e-24)
(-0.0468323064 0.009919210325 -4.576191333e-25)
(-0.05014638104 0.005602250033 -1.065151837e-23)
(-0.05140888264 0.0007446236949 0)
(-0.05047473488 -0.004241233585 0)
(-0.04733425578 -0.008886369161 2.673325571e-23)
(-0.04215696772 -0.01268078714 2.815261896e-23)
(-0.03531261751 -0.01513503334 -1.647723635e-24)
(-0.027388763 -0.01586097512 4.851256483e-23)
(-0.01916935912 -0.01467263784 9.430010606e-23)
(-0.0115605968 -0.01169319458 3.987183073e-23)
(-0.005465342236 -0.007450638869 4.179747878e-25)
(-0.001451129204 -0.002936164999 1.054089016e-25)
(-9.072747856e-05 0.0002257225678 0)
(-0.0005024214587 0.006044867614 -4.255620102e-23)
(-0.006402213965 0.01636943063 -1.699609158e-23)
(-0.01553374726 0.02355743775 8.138669131e-24)
(-0.02627698453 0.0274394611 0)
(-0.03728448825 0.02831886793 0)
(-0.04768664943 0.02658581659 0)
(-0.05679231648 0.02262972383 -4.596008533e-26)
(-0.06404913597 0.01683517392 -2.114024417e-24)
(-0.06900593903 0.009621899494 0)
(-0.07130346297 0.001491413657 1.64110203e-24)
(-0.07070399242 -0.006935555211 2.80636266e-25)
(-0.06712630492 -0.01492876671 -2.814220411e-25)
(-0.06069556962 -0.0216655529 0)
(-0.05180471791 -0.02631422474 4.138490672e-23)
(-0.04114786193 -0.0281589887 -4.686813889e-23)
(-0.02971834422 -0.02677231594 -2.767838373e-23)
(-0.0187364015 -0.02221435928 -3.972515109e-23)
(-0.009487695802 -0.01521878649 7.795288994e-25)
(-0.002976806765 -0.007298183338 9.777082869e-23)
(-0.0002318706636 -0.0008663172475 0)
(-0.0005315651137 0.01009419525 4.276322921e-23)
(-0.007982928616 0.02595007447 4.77369507e-25)
(-0.01939528743 0.03642588858 -4.664665433e-25)
(-0.03282119283 0.04185192076 0)
(-0.04664323929 0.04289162902 7.770454354e-25)
(-0.05984774282 0.04019791333 -7.662714178e-25)
(-0.07162763724 0.03434523983 3.668007157e-23)
(-0.08132173564 0.02585528892 1.843671606e-23)
(-0.08835997926 0.01527255099 6.226060733e-24)
(-0.09224866485 0.00324664591 -1.643013935e-24)
(-0.09259801378 -0.009406466453 0)
(-0.08917023949 -0.02167269767 4.378531419e-25)
(-0.08195513464 -0.03236487148 1.01179511e-23)
(-0.07126499526 -0.04020970069 -4.354861258e-23)
(-0.05781720748 -0.04401774584 1.936386118e-24)
(-0.04278373294 -0.04294595661 4.228992071e-23)
(-0.02775321343 -0.03683175174 -3.860643646e-25)
(-0.01454998245 -0.02652623029 0)
(-0.00485926331 -0.01408424139 5.43604536e-23)
(-0.000364126792 -0.002847028147 -2.563621621e-22)
(-0.0005271773728 0.01499805398 9.833813106e-23)
(-0.009377187768 0.03738719508 -4.901944458e-25)
(-0.02288006266 0.05169812787 0)
(-0.03882750765 0.05893730902 0)
(-0.05538250362 0.06025134944 -8.72771671e-23)
(-0.07142368861 0.05661517174 -8.494597895e-23)
(-0.08606063829 0.04879873005 -4.062835401e-23)
(-0.09854436187 0.03743794739 -1.50211577e-23)
(-0.1081876911 0.0231591991 -5.357564564e-24)
(-0.1143375538 0.006710273857 -8.167878021e-24)
(-0.116397882 -0.01093116863 6.59337617e-24)
(-0.1138874267 -0.02848671219 8.812212854e-24)
(-0.1065430323 -0.04436699779 -1.892007563e-23)
(-0.09446320878 -0.05674948035 4.546366055e-24)
(-0.07826470586 -0.0637791236 0)
(-0.05922612289 -0.06393148643 -1.579072581e-23)
(-0.03933798962 -0.05653544489 -2.230516677e-26)
(-0.02114092409 -0.04235634867 0)
(-0.00731837187 -0.02398153474 -1.51925322e-22)
(-0.0005215828716 -0.005925483755 6.053273344e-22)
(-0.0004990501707 0.020644096 -9.76683733e-23)
(-0.01052877425 0.05045040948 2.831084198e-22)
(-0.02582779696 0.06911981582 1.526403048e-22)
(-0.04401841685 0.07848679119 3.617852671e-24)
(-0.06310325408 0.08028916836 -7.318644534e-23)
(-0.08189885704 0.0758755504 9.038751994e-23)
(-0.09947156832 0.0662131305 -3.588642685e-24)
(-0.1150160157 0.05201453413 -1.728278946e-24)
(-0.1277447843 0.03392266701 2.522807207e-24)
(-0.1368399653 0.01270293916 7.375970542e-24)
(-0.1414638476 -0.01058576984 -6.493543518e-24)
(-0.1408179488 -0.03445692843 -9.772190572e-24)
(-0.1342682962 -0.05692341956 -3.2615673e-23)
(-0.1215395081 -0.0755282543 -3.651476674e-23)
(-0.1029627177 -0.08753753783 5.625561728e-25)
(-0.07976024629 -0.09038736721 0)
(-0.05426450537 -0.08244123174 0)
(-0.02987033499 -0.06397465911 -2.903799861e-24)
(-0.01066238877 -0.03798656748 2.968198862e-24)
(-0.0007350496195 -0.01050062675 1.027792112e-22)
(-0.0004479026791 0.02687046151 0)
(-0.01134858264 0.06480271336 2.001830559e-22)
(-0.0280143924 0.08828973844 8.961554871e-23)
(-0.04799586142 0.1001165102 0)
(-0.06920220321 0.1027009256 1.569387854e-22)
(-0.09043890851 0.09780991999 0)
(-0.1107774995 0.08660646496 -1.428037391e-22)
(-0.1294030604 0.06983652629 6.51359878e-24)
(-0.1454704146 0.04808108606 0)
(-0.1580282179 0.02201809304 0)
(-0.166006387 -0.007332208623 -1.373826475e-24)
(-0.1682604152 -0.03838465114 -9.310894382e-25)
(-0.1637001556 -0.06883478088 1.49120793e-22)
(-0.1515151992 -0.0955769303 -4.70429782e-23)
(-0.1315086205 -0.1148236699 -2.558654951e-24)
(-0.104555796 -0.1225643444 1.532473709e-24)
(-0.0730908293 -0.1155466094 -1.556647381e-24)
(-0.04134868278 -0.09282732801 0)
(-0.01525171715 -0.05740553066 3.202546855e-24)
(-0.001044254789 -0.01714660039 -1.012582098e-21)
(-0.0003744762778 0.03346066986 0)
(-0.01174958138 0.07998358778 -1.127857402e-22)
(-0.02920583732 0.1086317069 -6.190031028e-22)
(-0.05031529439 0.1232153991 -3.754687677e-22)
(-0.07296009098 0.1269020086 0)
(-0.09598566619 0.1219188575 4.118721357e-22)
(-0.1185226951 0.109629626 1.260614964e-22)
(-0.1398094375 0.09077899434 -5.580581456e-24)
(-0.1590165757 0.06581239746 5.552960579e-24)
(-0.1751403181 0.0352092343 0)
(-0.1869501687 -0.0001944506902 2.911522124e-23)
(-0.1930115353 -0.03889355212 4.69443958e-24)
(-0.1917755086 -0.07843347167 -1.076383104e-22)
(-0.1817823607 -0.1151800631 8.000175141e-23)
(-0.1620525382 -0.1442528753 -2.418844053e-22)
(-0.1327024727 -0.1598477781 0)
(-0.0957761246 -0.1563048844 0)
(-0.05601465443 -0.1302931144 0)
(-0.02147790842 -0.08380833844 0)
(-0.001500320402 -0.02665427956 5.57042807e-22)
(-0.0002874258764 0.04015819468 0)
(-0.0116933596 0.09543001881 -3.492441561e-22)
(-0.02924367244 0.1293993076 8.931518667e-22)
(-0.050608148 0.1469211908 3.616580353e-22)
(-0.07369885661 0.1519664813 0)
(-0.09744894639 0.1472684973 -3.861865667e-22)
(-0.1211039286 0.1344134964 -3.173906973e-23)
(-0.1440290642 0.1141355462 3.332607595e-22)
(-0.1655106815 0.08669833663 1.769208117e-22)
(-0.1846210961 0.05229156598 -4.059547052e-23)
(-0.200128794 0.01141944714 1.65672756e-23)
(-0.2104584809 -0.03471019609 -8.263602069e-24)
(-0.2137171508 -0.08376008974 3.371283553e-22)
(-0.2078179558 -0.1318689057 0)
(-0.1908204593 -0.1732681004 2.420012642e-22)
(-0.1616305408 -0.2002515651 5.772020088e-24)
(-0.1211638258 -0.2040048317 -5.85809798e-24)
(-0.0738482746 -0.1772059524 1.547552835e-22)
(-0.02971714159 -0.1188603362 -5.432767502e-24)
(-0.00217947246 -0.04005271983 0)
(-0.0002117807203 0.04671376221 0)
(-0.0112500651 0.1105435299 0)
(-0.02815618858 0.1497271488 -5.022098721e-22)
(-0.048744507 0.170142688 -1.880769851e-23)
(-0.07100030286 0.1766169996 2.038116542e-23)
(-0.0939936947 0.1724450923 -2.014052135e-23)
(-0.1171424233 0.1594812346 -2.316572826e-23)
(-0.1400168488 0.1384766478 -3.029368967e-22)
(-0.1621317764 0.1095143287 6.698334249e-23)
(-0.1827948318 0.0724522035 4.512494221e-23)
(-0.2009825281 0.02735154448 -4.577016673e-23)
(-0.2152259992 -0.02508302419 0)
(-0.2235551104 -0.08297813359 -7.837148392e-23)
(-0.2234619341 -0.1427191945 0)
(-0.2120664406 -0.1981746882 -3.738975021e-22)
(-0.1867417925 -0.2400694979 5.243887188e-22)
(-0.1464422032 -0.2560695856 0)
(-0.093944391 -0.2331141927 -1.493126005e-22)
(-0.04021933202 -0.1639567005 1.936652908e-22)
(-0.003201022987 -0.05860896976 -3.410635858e-22)
(-0.0002016224878 0.05297332999 0)
(-0.01067298136 0.1248111228 9.182014944e-22)
(-0.02628512242 0.1687342354 -2.440438821e-23)
(-0.04501193763 0.1916365307 9.192470995e-22)
(-0.06494697296 0.1992834753 -2.511823939e-23)
(-0.08536740445 0.1956029901 2.838533435e-23)
(-0.1059318285 0.1827829864 -2.812622332e-23)
(-0.1264938685 0.1616546959 -1.660736421e-23)
(-0.1469013497 0.1321746918 -5.259665178e-22)
(-0.1668476855 0.09389694294 -8.905671234e-24)
(-0.1857323084 0.04640802746 9.659194531e-24)
(-0.2024801968 -0.01023408711 3.312786925e-22)
(-0.2154173241 -0.074993221 -5.820142153e-22)
(-0.2220224443 -0.1450252282 0)
(-0.2188041112 -0.2146693284 8.886205173e-22)
(-0.2016259931 -0.2739943448 -4.939884164e-22)
(-0.1668635845 -0.307573712 -1.571901569e-23)
(-0.1140213882 -0.2953742718 0)
(-0.05288432374 -0.2195751077 -1.889301693e-22)
(-0.00474911453 -0.08377077075 3.359709114e-22)
(-0.0003642953341 0.05902094594 1.550874524e-23)
(-0.01049639547 0.1379825617 -8.763382088e-22)
(-0.02441524504 0.1856727553 -1.156968107e-21)
(-0.04026923675 0.2101300289 -8.628173248e-22)
(-0.05630984565 0.2182267635 0)
(-0.07215160346 0.2146120684 3.513482007e-23)
(-0.0877956977 0.2018739685 -7.294196295e-23)
(-0.1034601757 0.1809973543 5.867350112e-23)
(-0.1194026614 0.1518985716 3.021071974e-22)
(-0.1357977352 0.1139157992 -1.128097892e-23)
(-0.1526130043 0.06621658905 0)
(-0.169456914 0.008180778831 -3.603608801e-22)
(-0.1852806089 -0.06015538723 7.515096706e-22)
(-0.1980489118 -0.1372695542 8.831105433e-22)
(-0.204357911 -0.2189205111 -5.296063657e-22)
(-0.1991000448 -0.2959651323 5.162199352e-22)
(-0.1760617465 -0.351400738 1.077944273e-23)
(-0.1300893716 -0.3584086779 -1.095254679e-23)
(-0.06688786834 -0.2843224688 -8.223429344e-23)
(-0.007083264682 -0.1169942084 0)
(-0.0009096834061 0.06539862597 -1.911345172e-23)
(-0.01167682019 0.150276912 -1.326877481e-21)
(-0.02389077183 0.2000592795 1.094151889e-21)
(-0.03601639564 0.2244142041 6.734472276e-22)
(-0.04657701208 0.2316515731 6.014214698e-22)
(-0.05577511041 0.2272331959 6.64348124e-22)
(-0.06411784505 0.2141729459 -4.458332218e-23)
(-0.07228154421 0.1936468146 -3.461094629e-22)
(-0.08097607412 0.165602128 2.152016679e-22)
(-0.09087854138 0.1292717621 0)
(-0.1025614834 0.08353324321 0)
(-0.1163688876 0.02720351266 2.655255631e-22)
(-0.1321653482 -0.04061606189 8.194658949e-23)
(-0.1489310929 -0.1200085267 -2.821336973e-22)
(-0.1641334695 -0.2089255717 -5.410950149e-23)
(-0.1727916944 -0.3006945149 1.302001082e-22)
(-0.1670337583 -0.3793278314 -3.400087805e-22)
(-0.1365305436 -0.413639941 -1.597545579e-23)
(-0.08018277952 -0.3538279508 8.212190934e-23)
(-0.01050760677 -0.1594107973 -6.032809571e-22)
(-0.002260604319 0.07348760253 0)
(-0.01580462366 0.1626485706 2.145741239e-21)
(-0.02665280621 0.2117851128 0)
(-0.03422712811 0.2333885311 -1.35172436e-21)
(-0.03759894535 0.2377705988 6.184368263e-23)
(-0.03800284486 0.2312501613 -6.192648879e-22)
(-0.03668943333 0.2171861258 -4.755981357e-22)
(-0.03489769468 0.1968914145 8.300706966e-22)
(-0.03379605243 0.1703338965 -1.885569312e-22)
(-0.03450655155 0.1367232849 0)
(-0.03812344424 0.09479910042 0)
(-0.04565739919 0.04304600796 2.41078275e-23)
(-0.05791512852 -0.02013429263 -6.006905245e-22)
(-0.07515251245 -0.09620295236 -4.309352993e-22)
(-0.09645751231 -0.1855521812 4.637688711e-22)
(-0.1183510062 -0.2853534085 -6.4882992e-22)
(-0.1332750453 -0.3838351301 9.118749848e-23)
(-0.1265371669 -0.4504321462 2.941229485e-23)
(-0.08899225532 -0.4198499682 5.660701463e-22)
(-0.01526921964 -0.2111699384 6.021441088e-22)
(-0.005180990075 0.08597983888 0)
(-0.02525659951 0.1766267842 1.465605706e-22)
(-0.03483660502 0.2205923263 -4.916894979e-23)
(-0.03640418781 0.235481268 7.642499708e-22)
(-0.03019028601 0.2343359527 -7.00496383e-22)
(-0.0191724245 0.2241562925 4.746205139e-23)
(-0.005622565401 0.2083496029 -1.018578217e-22)
(0.008561680814 0.1881225056 -3.389677751e-22)
(0.02179067991 0.1633909349 2.062714897e-22)
(0.03261973048 0.1333253507 0)
(0.03957680699 0.09664292533 0)
(0.04116282781 0.05174324569 -2.902542642e-22)
(0.0357780639 -0.003252494015 0)
(0.02197568612 -0.07058075923 -5.512027882e-22)
(-0.001270288225 -0.1525709735 -1.49193332e-23)
(-0.03310927969 -0.2505926969 2.559584983e-23)
(-0.06909601749 -0.3599319451 2.202851239e-22)
(-0.09228066584 -0.4575403008 4.78959078e-24)
(-0.08718187386 -0.469810531 -5.789690114e-22)
(-0.02103137318 -0.2698956567 0)
(-0.01111636301 0.108597441 0)
(-0.0424899103 0.1947140637 -8.848090126e-22)
(-0.04795749996 0.2258172662 -5.410851797e-22)
(-0.03919904814 0.2282104664 4.5436441e-22)
(-0.01878340545 0.2182295051 -1.710088261e-24)
(0.007658017618 0.2028190458 -4.560832916e-23)
(0.03667280132 0.1847597403 5.696372729e-22)
(0.06582236541 0.1647105228 -2.766747627e-23)
(0.09326354114 0.1423125895 -2.069672215e-22)
(0.1173815854 0.1166282502 3.1420703e-23)
(0.136539025 0.08641298049 -3.425779546e-23)
(0.1489603715 0.05017874078 -3.690472781e-23)
(0.1525217374 0.006161425338 3.20553761e-22)
(0.1449316162 -0.04795910479 6.119431131e-22)
(0.1235115913 -0.1153034389 -5.101025873e-22)
(0.08633171748 -0.2004181113 -1.615982941e-22)
(0.03198773118 -0.3067795354 1.531361672e-22)
(-0.02362349155 -0.4239825842 7.293760828e-23)
(-0.06492504993 -0.4871599935 1.913303283e-21)
(-0.02509984346 -0.3291534691 2.955004682e-21)
(-0.02004677234 0.1460730413 -4.390096655e-23)
(-0.06416447213 0.2112953963 4.417268718e-23)
(-0.05070362174 0.2177290454 1.000158301e-21)
(-0.01934344306 0.2014663171 -8.267746621e-24)
(0.02414095079 0.1809056189 0)
(0.07153639204 0.1606914015 4.363518459e-23)
(0.1190646547 0.141648005 -2.273738008e-22)
(0.1644705082 0.1233172149 -9.027487152e-23)
(0.2062186906 0.1048114468 3.680544908e-23)
(0.2429580136 0.08507177914 -1.701579395e-23)
(0.2732148814 0.0629624011 3.429832691e-23)
(0.2952483717 0.03726422731 -6.59244873e-23)
(0.3066925459 0.006536512338 -9.303629302e-23)
(0.3049699863 -0.03087630942 1.517000999e-22)
(0.2863904971 -0.07786175557 0)
(0.2470543166 -0.1399292397 1.505528987e-22)
(0.1810902063 -0.2266296128 2.560012673e-22)
(0.09604299552 -0.3443890497 0)
(-0.0066983865 -0.4552205472 -3.675652608e-21)
(-0.0192242081 -0.3777533195 -2.892633639e-21)
(-0.02591942254 0.2276831974 -9.514135316e-22)
(-0.03998310064 0.2238218723 -1.388949315e-22)
(0.03656120755 0.1810583445 -2.335507165e-22)
(0.1090494808 0.1451053086 -1.193700845e-22)
(0.1817174217 0.1172436851 -4.295687854e-23)
(0.2490064479 0.09627816158 9.782699237e-23)
(0.3100302372 0.08002432319 -1.40851718e-22)
(0.3646169173 0.0665676306 1.29710766e-22)
(0.4126209316 0.05449159595 -8.61967976e-23)
(0.4536207115 0.04270908927 1.132178939e-25)
(0.4867838212 0.03032340422 1.527681989e-23)
(0.5107415594 0.01652962737 7.996919319e-23)
(0.5236567948 0.0005371618204 -1.81106784e-22)
(0.5231775525 -0.01863310277 -1.61710299e-22)
(0.5052306897 -0.04286428143 -4.262730298e-23)
(0.4658703456 -0.07633199303 0)
(0.3952688078 -0.1286088387 -1.846504742e-22)
(0.2916064707 -0.2208467814 8.148789099e-22)
(0.1197451264 -0.352501664 1.631606076e-21)
(0.02670537544 -0.3775497407 2.172658032e-21)
(0.2142895422 0.1347448165 9.86491257e-22)
(0.2776314169 0.09870515923 0)
(0.4316595631 0.05810420671 -2.594261169e-22)
(0.5304750742 0.03846263034 -1.741614666e-22)
(0.6016963227 0.02623411417 0)
(0.6571191585 0.01831913735 -6.008792317e-23)
(0.7015201649 0.01313592513 6.377641208e-23)
(0.7376027113 0.009542080839 -1.800048016e-23)
(0.7669351242 0.006804469558 2.885806979e-23)
(0.7902089552 0.00446480114 2.314912767e-23)
(0.8074539578 0.002221417727 0)
(0.8182608832 -0.0001499520616 -2.872922011e-23)
(0.8216490802 -0.00272371926 0)
(0.8162389026 -0.005712571411 2.738018857e-23)
(0.7991330948 -0.009611325639 1.421605389e-23)
(0.7679986123 -0.01500253579 -5.799475199e-23)
(0.7106556293 -0.02502522503 -2.535676553e-22)
(0.6235184325 -0.04204288403 -6.918121817e-22)
(0.4230090982 -0.09182971184 0)
(0.2705674596 -0.1524021982 -2.119485845e-21)
)


// ************************************************************************* //
