/*--------------------------------*- C++ -*----------------------------------*\
  =========                 |
  \\      /  F ield         | OpenFOAM: The Open Source CFD Toolbox
   \\    /   O peration     | Website:  https://openfoam.org
    \\  /    A nd           | Version:  13
     \\/     M anipulation  |
\*---------------------------------------------------------------------------*/
FoamFile
{
    format      ascii;
    class       scalarField;
    location    "34.5";
    object      p_all;
}
// * * * * * * * * * * * * * * * * * * * * * * * * * * * * * * * * * * * * * //


400
(
2.054933218e-07
-0.0005472703332
-0.0008893192656
-0.001016820575
-0.000937975118
-0.0006851122741
-0.0002957993927
0.0001939490206
0.0007475813734
0.001324610039
0.001879418412
0.002359171137
0.00270848052
0.002874239913
0.002814899228
0.00251245743
0.001987390985
0.001296848497
0.0006379164073
4.201427614e-05
0.0005883849008
7.084437268e-06
-0.0003566450649
-0.0004989705156
-0.0004683352558
-0.0002912966335
2.79014161e-06
0.0003846489586
0.0008228553982
0.001280113778
0.001716566431
0.002081065408
0.002323261149
0.002395804107
0.002264822696
0.001921530943
0.001392666384
0.0007432850842
0.000145629837
-0.0005170549868
0.0009526418711
0.0003082218366
-9.303505909e-05
-0.0002393510821
-0.0002332182852
-0.0001047285936
0.0001220815028
0.0004259440583
0.0007831447232
0.001161674557
0.001529714574
0.001833120533
0.00202196004
0.002047520807
0.001874679449
0.00149362294
0.0009283264016
0.0002353443118
-0.0004631281194
-0.001300099383
0.0009763580872
0.0002581830738
-0.0001920873982
-0.0003443887622
-0.0003536379557
-0.0002566414145
-7.405269835e-05
0.0001815321147
0.0004965832529
0.0008508799344
0.001203231833
0.001510715883
0.001712520806
0.001748109383
0.001568616838
0.001150663828
0.000506075509
-0.0003184105848
-0.001233741535
-0.002384537763
0.0004806884485
-0.0002847842085
-0.0007636999669
-0.0009154209086
-0.0009364559335
-0.000868025636
-0.0007251084368
-0.0005081696227
-0.0002169309069
0.0001393660066
0.0005302980151
0.0009075985095
0.001200041025
0.001326732493
0.001211253761
0.0008004091948
8.015341733e-05
-0.0009174484418
-0.002127430936
-0.003655927293
-0.0006861721306
-0.00146694137
-0.00195597916
-0.002107038242
-0.002149830847
-0.002126491833
-0.002042111863
-0.001879483549
-0.001617363416
-0.001245329988
-0.0007789199926
-0.0002626663349
0.0002208137187
0.0005616884546
0.0006380410183
0.0003417348152
-0.0003928274528
-0.001563868502
-0.00313465228
-0.005141887466
-0.00266163324
-0.003423348833
-0.003915203153
-0.004080572148
-0.004177939609
-0.004247000247
-0.004278027399
-0.004228976051
-0.004047370509
-0.003689413724
-0.003140559043
-0.002426562532
-0.001633320716
-0.0009032517513
-0.0004246405478
-0.0003985036153
-0.0009880504238
-0.002260392405
-0.004232551893
-0.00682812995
-0.005554815218
-0.006269752782
-0.006768042513
-0.006981983063
-0.007195364291
-0.007443258756
-0.00769696789
-0.007882039741
-0.007902010599
-0.007660453308
-0.007087185156
-0.006159328332
-0.004943581239
-0.003604704214
-0.002413773738
-0.001714354921
-0.001843040111
-0.003014853676
-0.005368288013
-0.008662082482
-0.009435036042
-0.01008137405
-0.01059825085
-0.01091049415
-0.01132589345
-0.01187577151
-0.01251114461
-0.01311952051
-0.01354768453
-0.01362325919
-0.01318238351
-0.01212102795
-0.01042793353
-0.008256467239
-0.005956241535
-0.004061819171
-0.003190083684
-0.003842984096
-0.006426379514
-0.01049156722
-0.01431681405
-0.01487579829
-0.01542278881
-0.01588203719
-0.01658987683
-0.01758000645
-0.01878686298
-0.02005899214
-0.02117748061
-0.02187353827
-0.0218573206
-0.02087220596
-0.01877186583
-0.01562004046
-0.01179501511
-0.008037278835
-0.005359838166
-0.004760097487
-0.007181118485
-0.01197919896
-0.0201543249
-0.02060454891
-0.02117473486
-0.02179673867
-0.02285209493
-0.02439035192
-0.0263392192
-0.02851360314
-0.0306275438
-0.03230347964
-0.03309523925
-0.03254069118
-0.03028247151
-0.02617867289
-0.0205248703
-0.01420390164
-0.008691512646
-0.005726584394
-0.007219231699
-0.01246637855
-0.02685634506
-0.02716210729
-0.02770254213
-0.02842295503
-0.02978915251
-0.03188908933
-0.03465887413
-0.03788963607
-0.04123392035
-0.04420504568
-0.04618812091
-0.04647877174
-0.0444630747
-0.03966002551
-0.03212101432
-0.02269874058
-0.01326655012
-0.00648591259
-0.005808606393
-0.010765203
-0.03433469669
-0.03441811165
-0.03478945338
-0.03540453514
-0.03689184278
-0.03940999188
-0.04292003358
-0.04719766779
-0.05184006136
-0.05625837626
-0.05967973387
-0.06119089879
-0.05977952529
-0.05465577414
-0.04544105376
-0.03269969777
-0.01845308036
-0.006245890499
-0.001673936867
-0.004873573296
-0.0426098348
-0.04227940966
-0.0421956345
-0.04229595654
-0.04351370114
-0.0461163939
-0.05009960777
-0.05522037785
-0.06101506065
-0.06679617354
-0.07164012046
-0.07441302275
-0.07383258515
-0.06867490686
-0.0580719719
-0.04206184694
-0.02244005867
-0.003257228594
0.007347062844
0.008341456387
-0.05201034115
-0.05076099642
-0.04967782394
-0.04857892569
-0.04892679148
-0.05112021887
-0.05517291411
-0.0607962625
-0.06743557085
-0.07428994012
-0.0802828212
-0.08407627811
-0.08413071409
-0.07883760326
-0.06684286841
-0.04752347884
-0.02212750886
0.005501753172
0.02471535401
0.03352739199
-0.06365594213
-0.06018924152
-0.05709739033
-0.05376444322
-0.05246558849
-0.05368025866
-0.05736510523
-0.06313830577
-0.0702627782
-0.07780124242
-0.08449293443
-0.08878615115
-0.08889847472
-0.08283975278
-0.06885084004
-0.0456208641
-0.01375154344
0.02441688918
0.05553964207
0.0773558813
-0.08018649995
-0.07107506052
-0.06412132132
-0.0571656295
-0.05343179332
-0.05321588166
-0.05625964268
-0.06191467123
-0.0692598192
-0.07711780946
-0.0840130748
-0.0881525345
-0.08748096939
-0.07965669284
-0.06247954303
-0.03405045856
0.005564927944
0.05859411297
0.1058231502
0.1480678575
-0.1105078891
-0.08585520005
-0.0716071719
-0.05897221209
-0.0519146224
-0.04988437709
-0.05210419458
-0.05751035646
-0.06486118657
-0.07271007139
-0.07934149155
-0.08271478996
-0.08052051835
-0.0698874227
-0.04823249085
-0.01272252787
0.03823624845
0.1071322177
0.1779787805
0.2564766188
-0.1684380705
-0.09990936521
-0.07500946019
-0.05479909072
-0.04462024262
-0.0415867857
-0.0437194279
-0.04938336814
-0.05701903258
-0.0649726064
-0.07136347548
-0.07398174808
-0.07013054485
-0.05701402519
-0.03102862874
0.01192941033
0.07559959871
0.1664043661
0.2761621446
0.4377044082
-0.3984293532
-0.1381005143
-0.07497162353
-0.04708964181
-0.03355072102
-0.0300315373
-0.03280375494
-0.03926657881
-0.04756037706
-0.0559409339
-0.06250194947
-0.06503101638
-0.06099625245
-0.04697004759
-0.01875684069
0.02993553871
0.1069557925
0.2334273805
0.4198803353
0.7800235172
)


// ************************************************************************* //
