/*--------------------------------*- C++ -*----------------------------------*\
  =========                 |
  \\      /  F ield         | OpenFOAM: The Open Source CFD Toolbox
   \\    /   O peration     | Website:  https://openfoam.org
    \\  /    A nd           | Version:  13
     \\/     M anipulation  |
\*---------------------------------------------------------------------------*/
FoamFile
{
    format      ascii;
    class       scalarField;
    location    "10.86";
    object      p_all;
}
// * * * * * * * * * * * * * * * * * * * * * * * * * * * * * * * * * * * * * //


400
(
9.315052646e-08
-0.0005313131855
-0.0008591948423
-0.0009739892887
-0.0008847472846
-0.0006235138444
-0.0002274025802
0.0002680919991
0.0008270550347
0.001409786588
0.001971479394
0.002460378269
0.002821971016
0.003003767045
0.002964262857
0.002684662625
0.002183397635
0.001516335416
0.0008725635307
0.0002869057965
0.0005715889688
7.072358279e-06
-0.0003423367224
-0.0004717925351
-0.0004291977675
-0.0002410089967
6.348640245e-05
0.0004551004362
0.0009026496879
0.001369375911
0.001816406968
0.00219315202
0.002449989171
0.002540092643
0.002429507974
0.002108569505
0.001602220181
0.0009734292755
0.000390316196
-0.0002634575594
0.000921449058
0.0002957217918
-9.015838724e-05
-0.0002232004514
-0.0002036485363
-6.139533455e-05
0.0001793137615
0.0004968439651
0.0008673809201
0.001260290997
0.001639996173
0.001957354466
0.002162037128
0.002205805547
0.002053524902
0.001694576152
0.001151344057
0.0004784820115
-0.0002055355742
-0.001029072962
0.0009363823531
0.0002388250795
-0.0001945037685
-0.0003324883019
-0.0003262182167
-0.0002122620468
-1.18541143e-05
0.0002615175431
0.0005934688404
0.0009625325669
0.001330972973
0.001653559319
0.001871303479
0.001924675219
0.001765199753
0.001369092558
0.0007469911485
-5.588237958e-05
-0.0009531927607
-0.002082548439
0.0004446001862
-0.0002998393151
-0.0007609090887
-0.000896871274
-0.0008993487557
-0.0008095334485
-0.0006435746416
-0.000403586701
-9.078092563e-05
0.0002843920132
0.0006919240307
0.001083857151
0.00139039505
0.001532114183
0.001433744423
0.001042534717
0.0003440379783
-0.0006306572338
-0.001818565397
-0.003320497272
-0.0007009595058
-0.001461956475
-0.001933014353
-0.002066284121
-0.00208616952
-0.002035253992
-0.0019206598
-0.001727890649
-0.001438242191
-0.001043213162
-0.0005589025049
-2.94730271e-05
0.0004639180877
0.0008136967145
0.0009003204118
0.0006176268253
-9.888626333e-05
-0.001247439587
-0.002792555318
-0.004767342704
-0.00263463072
-0.003379805459
-0.00385388004
-0.003998445719
-0.004066767817
-0.004099704786
-0.004090658371
-0.004001613772
-0.003783999201
-0.003397157465
-0.002828483448
-0.002103558783
-0.001307116757
-0.0005784190855
-0.0001017557987
-7.384706651e-05
-0.0006543194656
-0.001908448935
-0.003853535124
-0.006412090299
-0.005465284599
-0.006168572072
-0.006649343439
-0.00683822695
-0.007014382408
-0.007214974857
-0.007415732112
-0.007547778862
-0.007520229381
-0.007241557161
-0.006645790384
-0.00570822505
-0.004497480545
-0.003173993642
-0.002002992254
-0.001320771729
-0.001456716055
-0.002620838698
-0.004950014292
-0.008204830634
-0.009265146101
-0.009905977893
-0.01040561645
-0.01068751506
-0.01105584327
-0.01154507868
-0.01211209168
-0.0126516659
-0.01301807942
-0.01304553737
-0.01257417438
-0.01150619261
-0.009826815504
-0.007686741941
-0.005428551157
-0.003576692524
-0.002736554328
-0.003400377326
-0.005968820227
-0.009997456022
-0.01405489884
-0.01461541945
-0.0151458194
-0.01556934796
-0.01621997456
-0.0171356358
-0.01825813227
-0.01944508851
-0.02048702538
-0.0211237218
-0.02107176762
-0.02007879729
-0.01799897751
-0.01489304636
-0.01113179309
-0.007443996562
-0.004827651588
-0.004264983476
-0.006688353192
-0.01145869268
-0.01979752626
-0.02025699478
-0.02081241543
-0.02139494841
-0.02238495954
-0.02383716941
-0.02568818135
-0.02776386318
-0.02978960936
-0.03139793644
-0.03215021602
-0.03158913474
-0.02935759416
-0.02531039596
-0.01973619442
-0.01350683107
-0.008082560087
-0.005183202323
-0.006702253174
-0.01193828996
-0.02641199373
-0.02673518775
-0.02726500555
-0.02794600552
-0.02924348359
-0.03125111209
-0.03391541779
-0.03704053345
-0.04029243301
-0.04319574725
-0.04514365096
-0.0454381626
-0.04345402067
-0.03871447002
-0.03126174882
-0.02193953638
-0.01260951752
-0.005915085924
-0.005288931279
-0.01025809703
-0.03382016504
-0.0339293395
-0.03429764759
-0.03487916213
-0.03630126507
-0.03872806945
-0.04213249825
-0.04630549091
-0.05086011248
-0.05522016115
-0.05861992232
-0.06014463628
-0.05878521304
-0.05373474778
-0.04460779946
-0.03196115556
-0.01781143163
-0.005692114474
-0.001186752058
-0.004424487489
-0.04205110672
-0.04175433117
-0.04167911166
-0.04175848213
-0.04292189419
-0.0454409606
-0.04932454272
-0.05434735117
-0.06006500685
-0.06580407041
-0.07064839573
-0.07346186424
-0.07295367949
-0.06788471142
-0.05737327356
-0.04144685526
-0.02190206575
-0.002787356973
0.00775310895
0.008692554326
-0.05144007843
-0.05023142839
-0.04917208433
-0.04807088724
-0.04838065302
-0.05050145893
-0.05446226841
-0.05999410411
-0.06656674137
-0.07339440005
-0.07940900143
-0.08326932857
-0.08342380572
-0.07824230025
-0.0663520332
-0.04711124227
-0.02177385183
0.005813136739
0.02498645359
0.03374501906
-0.06311207686
-0.0596920696
-0.05664174909
-0.05332828011
-0.05200860996
-0.05315964334
-0.05675799704
-0.06243596528
-0.0694997104
-0.07701962584
-0.08374734181
-0.08812786254
-0.08836814885
-0.08244165876
-0.06857788673
-0.04543227759
-0.01362628783
0.02453164046
0.0556377878
0.07742450533
-0.07971080537
-0.07065093698
-0.0637572501
-0.05684057954
-0.05309847832
-0.0528190636
-0.05576916548
-0.0613272788
-0.06860347489
-0.07644093474
-0.08337527083
-0.08760892916
-0.08706777751
-0.07940603906
-0.0623754647
-0.03405819166
0.005426041455
0.05861491076
0.1057684347
0.1480019497
-0.1101347245
-0.08553672526
-0.07136529347
-0.05877710938
-0.05172100298
-0.04961554895
-0.05172946118
-0.05702710148
-0.0642984175
-0.07211937657
-0.07878585089
-0.08225480436
-0.08021869652
-0.06972460772
-0.04821927607
-0.01282724622
0.03805611082
0.1069649233
0.1778063658
0.2562966657
-0.1681619255
-0.09967851979
-0.07487064304
-0.05471389548
-0.04452486188
-0.04141491985
-0.04343503664
-0.04898279192
-0.05653012381
-0.06444511551
-0.07085708135
-0.07355169857
-0.06981580078
-0.05687082074
-0.03103375809
0.0118056244
0.07539860503
0.1661822753
0.2759338365
0.4374891681
-0.3981596508
-0.1378918717
-0.07486059648
-0.04704257423
-0.03349929505
-0.02990893754
-0.03257127934
-0.03891795031
-0.04711944284
-0.05545329552
-0.06202422503
-0.06461912131
-0.06069392927
-0.04680941601
-0.01873336993
0.02984429457
0.106785428
0.2332243138
0.4196683378
0.7798191121
)


// ************************************************************************* //
