/*--------------------------------*- C++ -*----------------------------------*\
  =========                 |
  \\      /  F ield         | OpenFOAM: The Open Source CFD Toolbox
   \\    /   O peration     | Website:  https://openfoam.org
    \\  /    A nd           | Version:  13
     \\/     M anipulation  |
\*---------------------------------------------------------------------------*/
FoamFile
{
    format      ascii;
    class       volScalarField;
    location    "5";
    object      p;
}
// * * * * * * * * * * * * * * * * * * * * * * * * * * * * * * * * * * * * * //

dimensions      [0 2 -2 0 0 0 0];

internalField   nonuniform List<scalar> 
100
(
-2.85e-09
-0.000576577
-0.00050999
0.000531423
0.00252592
0.00523998
0.00810262
0.0102243
0.0108228
0.0101161
0.00063858
-6.36417e-05
-0.00011008
0.000700733
0.00238792
0.00481739
0.0075045
0.00958068
0.0101848
0.0093612
0.000369479
-0.000585725
-0.000843435
-0.000274431
0.00122639
0.0036868
0.00670517
0.00929085
0.0102092
0.00924165
-0.0016032
-0.0028342
-0.0033804
-0.00312218
-0.00178484
0.000937326
0.00482137
0.00874244
0.0108147
0.0103131
-0.00589456
-0.00738639
-0.00835642
-0.00868007
-0.00779845
-0.00490381
0.00022138
0.00662037
0.0115607
0.0133134
-0.0132098
-0.0148429
-0.016405
-0.017798
-0.0180346
-0.0155067
-0.00899882
0.00139201
0.0122403
0.0199484
-0.0243795
-0.0256238
-0.0275947
-0.0303523
-0.0322822
-0.0307135
-0.0226825
-0.00629904
0.015226
0.034956
-0.0410056
-0.0394712
-0.0400422
-0.0432808
-0.0463533
-0.0453505
-0.0349444
-0.00972257
0.0299706
0.0733615
-0.0711394
-0.0541342
-0.0478467
-0.0492215
-0.0520569
-0.0502195
-0.0358488
0.00202526
0.0721257
0.169399
-0.152767
-0.0676871
-0.0426459
-0.0431039
-0.0468315
-0.0446208
-0.0261972
0.0288657
0.145401
0.330845
)
;

boundaryField
{
    movingWall
    {
        type            zeroGradient;
    }
    fixedWalls
    {
        type            zeroGradient;
    }
    frontAndBack
    {
        type            empty;
    }
}


// ************************************************************************* //
