/*--------------------------------*- C++ -*----------------------------------*\
  =========                 |
  \\      /  F ield         | OpenFOAM: The Open Source CFD Toolbox
   \\    /   O peration     | Website:  https://openfoam.org
    \\  /    A nd           | Version:  13
     \\/     M anipulation  |
\*---------------------------------------------------------------------------*/
FoamFile
{
    format      ascii;
    class       scalarField;
    location    "5";
    object      p_all;
}
// * * * * * * * * * * * * * * * * * * * * * * * * * * * * * * * * * * * * * //


400
(
2.128916367e-08
-0.0004046729778
-0.0006171967131
-0.0006249014581
-0.0004448399023
-0.0001073769957
0.0003537725619
0.0009069961125
0.001521410825
0.002164265312
0.002798797561
0.003383149957
0.003871360501
0.00421676192
0.004378032574
0.004328189837
0.004066207975
0.003629742348
0.003134238689
0.002639917738
0.0004356571823
5.306369856e-06
-0.0002274222838
-0.0002497382361
-0.0001058799333
0.0001785543572
0.0005753794856
0.001056801376
0.001594308667
0.002156592397
0.002708184863
0.003208876783
0.003615145471
0.003884311968
0.003980983778
0.003886000163
0.003606277605
0.003182514806
0.002720647495
0.00219616156
0.0006610334038
0.0001887071736
-7.075856978e-05
-9.430136914e-05
3.606029796e-05
0.0002929505993
0.000651659843
0.001088961147
0.001580476749
0.00209785964
0.002607274822
0.003068656783
0.003437549904
0.003670033818
0.003729911661
0.003597876262
0.003279866891
0.002811223714
0.00226741053
0.001571219327
0.0005897068267
6.697260432e-05
-0.0002246993725
-0.0002458105955
-0.0001144091561
0.0001371110491
0.0004850765575
0.0009106137038
0.001394392332
0.001912050968
0.002431053564
0.002909534025
0.003297221532
0.003541557176
0.003596046989
0.003431404044
0.003045232335
0.002466549644
0.001750964365
0.000831206253
0.0001084048957
-0.0004499141261
-0.0007581531437
-0.0007665291592
-0.0006222615668
-0.0003621818902
-8.321288639e-06
0.0004263051606
0.000929580434
0.00148329953
0.002057369975
0.002608060541
0.003075695338
0.003392430927
0.003491532813
0.003322172957
0.002863972821
0.002136715029
0.001180737617
-4.487485678e-05
-0.000885358189
-0.001461375475
-0.001774474727
-0.001763989693
-0.001603435807
-0.001332808525
-0.0009706047607
-0.0005211611699
1.447721386e-05
0.0006288476589
0.001298411182
0.001981199251
0.002606545383
0.00308515503
0.003317196296
0.003212593109
0.002715026345
0.001824311679
0.0005609167336
-0.001064487994
-0.002489747898
-0.0030685122
-0.003382632603
-0.0033578147
-0.003193764868
-0.002932471995
-0.002586454685
-0.002147285742
-0.001598704984
-0.0009290291229
-0.0001456391487
0.0007244412454
0.00160134762
0.002371957335
0.002887847193
0.002991594831
0.002556764659
0.001534466585
-9.689293718e-05
-0.002241394223
-0.00479852292
-0.005370575108
-0.005690446911
-0.005671275173
-0.005539942391
-0.005340125167
-0.005076322573
-0.004722683466
-0.00423716009
-0.003574809789
-0.002703217685
-0.001628720876
-0.0004070686518
0.0008283284871
0.00186610602
0.002441193309
0.002296633273
0.001272110095
-0.000752764169
-0.003552362742
-0.007895149096
-0.008454730835
-0.008792940299
-0.008815020281
-0.008778073885
-0.008729487213
-0.008665795757
-0.008540317773
-0.008275928586
-0.007776867503
-0.006945103783
-0.005718593846
-0.004098279754
-0.002204465432
-0.0003104374004
0.001165940444
0.001743045102
0.001031042738
-0.001313610872
-0.004890784384
-0.01184265714
-0.01238482481
-0.01275650542
-0.01286241064
-0.01299777841
-0.0132199213
-0.01352164755
-0.01383592911
-0.01404394928
-0.01398117239
-0.01345077784
-0.01225729876
-0.01029379442
-0.007590816644
-0.004445575705
-0.001454328728
0.0005589763727
0.0007811669875
-0.001596217004
-0.005990768366
-0.01667700655
-0.01719216194
-0.01760236693
-0.01781953241
-0.01819470131
-0.01880727171
-0.01965616879
-0.02066038397
-0.02165892724
-0.02240485062
-0.022565064
-0.02173580357
-0.01968948128
-0.01617489326
-0.01142856854
-0.006189818414
-0.001720647463
0.0004831118264
-0.001264514437
-0.006297368108
-0.02241352801
-0.0228753326
-0.02329574983
-0.023597091
-0.02422178237
-0.02529038543
-0.02682293463
-0.0287363799
-0.03083502274
-0.03278635669
-0.03411221928
-0.03423386572
-0.03242248427
-0.02829661355
-0.02179005397
-0.01362699024
-0.00548973494
0.0002019584096
0.0002863991086
-0.004753170888
-0.02908131013
-0.02941687248
-0.029746226
-0.02999166679
-0.03075406854
-0.03222019288
-0.03444679127
-0.03735976524
-0.04073815315
-0.04417173553
-0.04702626459
-0.04845473084
-0.04745262363
-0.04313304922
-0.03500519563
-0.02352506728
-0.01058468779
0.0004166041949
0.004149320767
0.0005154788869
-0.03681353548
-0.03682945589
-0.03682837657
-0.03668931886
-0.03729081728
-0.03891238249
-0.04165592052
-0.04545720818
-0.05007146194
-0.05501734756
-0.05951865993
-0.06248857022
-0.06257746698
-0.05842731266
-0.04897853137
-0.03413749677
-0.01560902098
0.002542664902
0.01228747929
0.0125728329
-0.04603719357
-0.04522061673
-0.04439110335
-0.04326182158
-0.04317775562
-0.04451996498
-0.04742074451
-0.05180242535
-0.05737513994
-0.06357600713
-0.06948727498
-0.07380678976
-0.07487017661
-0.07089883055
-0.06023274765
-0.04206277142
-0.01749669794
0.009485685657
0.02808579377
0.03610112273
-0.05795375382
-0.05499403368
-0.0523616533
-0.04925676063
-0.04773464898
-0.04822194875
-0.0508186677
-0.0553704788
-0.06148732464
-0.06849822336
-0.07530665436
-0.08039783601
-0.0818496195
-0.07746642643
-0.06505772459
-0.04311676159
-0.01192860945
0.02586355776
0.05679863765
0.07797183162
-0.07525326561
-0.0667067739
-0.0604343702
-0.05395793888
-0.05015697892
-0.04925588828
-0.05117477117
-0.05556566124
-0.06186612351
-0.06920036121
-0.07628359291
-0.08136189527
-0.08223460486
-0.07629727397
-0.06096883186
-0.03401023938
0.00507863176
0.05711559312
0.1048091651
0.1467533521
-0.1067390187
-0.08268185489
-0.06932020905
-0.05732977919
-0.0502355008
-0.04746656793
-0.04844894551
-0.0524777268
-0.05868828785
-0.06594642298
-0.07272910023
-0.07703096623
-0.07639023149
-0.06773114199
-0.04805527521
-0.01419217018
0.03577130537
0.1042147307
0.1753420506
0.2536873421
-0.1657422174
-0.09767777029
-0.07387663349
-0.05433457342
-0.04412886022
-0.0403114994
-0.04114929634
-0.04537562194
-0.05180357708
-0.05908294512
-0.0655222946
-0.0689521858
-0.06660768269
-0.05525166838
-0.03116886028
0.01013876603
0.07269775806
0.1629702957
0.272721909
0.4344305582
-0.3957729795
-0.1361057133
-0.07410653385
-0.04702416094
-0.03353424754
-0.02929526441
-0.03082672789
-0.03587971499
-0.04294930121
-0.05058254276
-0.05705512396
-0.06019777546
-0.05736576544
-0.04502421088
-0.01858763572
0.02853089767
0.1044262245
0.2303127806
0.4166663926
0.7769124903
)


// ************************************************************************* //
