/*--------------------------------*- C++ -*----------------------------------*\
  =========                 |
  \\      /  F ield         | OpenFOAM: The Open Source CFD Toolbox
   \\    /   O peration     | Website:  https://openfoam.org
    \\  /    A nd           | Version:  13
     \\/     M anipulation  |
\*---------------------------------------------------------------------------*/
FoamFile
{
    format      ascii;
    class       scalarField;
    location    "5";
    object      p_all;
}
// * * * * * * * * * * * * * * * * * * * * * * * * * * * * * * * * * * * * * //


400
(
2.31449247e-09
-0.0003240910402
-0.0006382006068
-0.000759070739
-0.0006162082551
-0.000196671822
0.0004891801516
0.001418215266
0.002556431603
0.00385736989
0.005260021938
0.006687930701
0.008051238117
0.009252637717
0.01019752635
0.01080890819
0.01104631037
0.01092831469
0.01056692254
0.01019588512
0.0003327224581
-4.205537947e-06
-0.0002585237563
-0.0003398375594
-0.0001910750723
0.0001999042663
0.0008275959206
0.001675313692
0.002715452332
0.003907514998
0.005196278262
0.006511538324
0.007770543801
0.00888388404
0.009765501924
0.01034639595
0.01059128433
0.01051698034
0.01022068771
0.009838077014
0.0006626217325
0.000223160534
-5.383347998e-05
-0.0001410335475
-5.209274801e-06
0.0003568517961
0.0009401161015
0.001732522813
0.002712472896
0.003845332709
0.005080846681
0.00635236432
0.007579101608
0.0086717936
0.009542660162
0.01011911118
0.0103601268
0.01027262078
0.009937001693
0.009434811
0.0007954423121
0.0002444899794
-8.663161472e-05
-0.000204287396
-9.209978582e-05
0.0002434549891
0.0007963038464
0.001558318587
0.002513890301
0.003634287778
0.004873541941
0.006166548434
0.007430381793
0.008569453792
0.00948565265
0.01009315905
0.01033689426
0.01021142337
0.009793331455
0.009149705548
0.0006255126073
-3.760669924e-05
-0.0004353933662
-0.0005955057517
-0.000511359602
-0.000196802365
0.0003416471863
0.001100121563
0.002069362819
0.003226754208
0.004530218034
0.005914494637
0.00729101026
0.008551929049
0.009580547754
0.01026829789
0.01053798511
0.01037002144
0.009847862907
0.009042739371
8.764226159e-05
-0.0006900679035
-0.001160656696
-0.001368335822
-0.001312932827
-0.001013675694
-0.0004760869839
0.0003015848714
0.001317815787
0.002557401248
0.00398301403
0.005528961491
0.007098966102
0.008567967786
0.009792348867
0.01062974928
0.01096968941
0.01077199834
0.01013152492
0.009133176236
-0.0008754644093
-0.001775833777
-0.002325444079
-0.002584428093
-0.00255885532
-0.002272581336
-0.001728527218
-0.0009171088432
0.0001705124496
0.001529436636
0.003129956916
0.004907854666
0.006759640751
0.00853969295
0.01006897739
0.01115720479
0.01164299569
0.0114502713
0.0106819141
0.009441887663
-0.00232741435
-0.003364874299
-0.004002263945
-0.004318205566
-0.00432753542
-0.004059272287
-0.003512058159
-0.002665491752
-0.001496480041
5.147874924e-06
0.001822851571
0.003898944762
0.006127437679
0.008342231942
0.0103215504
0.01180969274
0.0125673535
0.01245285806
0.01156057572
0.01001484289
-0.004347112203
-0.00554157252
-0.006278235793
-0.006659930919
-0.006715564547
-0.006481013334
-0.005948871381
-0.005084274715
-0.00384493841
-0.002199116274
-0.0001415285685
0.002285957315
0.004986041139
0.007778903039
0.01039759565
0.0125024928
0.01373817707
0.01384586061
0.01287011161
0.01094848979
-0.007036524336
-0.008411124888
-0.009259170998
-0.00971717167
-0.009836853533
-0.009663758783
-0.009182460697
-0.008339590958
-0.007068329396
-0.005308037573
-0.003021429926
-0.0002154355358
0.00303628594
0.006559702782
0.01005230619
0.01307788735
0.01511782888
0.01571471543
0.01477739065
0.01242882093
-0.01053059731
-0.01210721622
-0.013073525
-0.01361437494
-0.01381797591
-0.01374324114
-0.0133642109
-0.01260495374
-0.01136940417
-0.009560913054
-0.007097739332
-0.003934080903
-8.994365976e-05
0.004301798371
0.008934193744
0.01328125662
0.01661616433
0.01816782322
0.01755056961
0.01479900311
-0.01501417267
-0.01680375479
-0.01787673474
-0.01848922648
-0.01878687145
-0.01884570897
-0.01862527059
-0.01802330776
-0.01691198905
-0.01515438216
-0.01261322984
-0.009173146616
-0.004761220488
0.000586005935
0.006620456093
0.01277346111
0.01809268912
0.02135669199
0.02162392814
0.01867928073
-0.02075486524
-0.02273517163
-0.02385601792
-0.02448247117
-0.02484933779
-0.02505112327
-0.0250253418
-0.02463987988
-0.02373630165
-0.02213919168
-0.01965272311
-0.01606793251
-0.01119091752
-0.004886650295
0.002756302701
0.01123698197
0.01943067318
0.02554923285
0.0277198748
0.02518019281
-0.02817039661
-0.03023230409
-0.03123296229
-0.03171220833
-0.03204112217
-0.03232575351
-0.03246673763
-0.0322977027
-0.03163425634
-0.03026999866
-0.02795430752
-0.02437703481
-0.01918841739
-0.01201545698
-0.002656781651
0.008640771914
0.02075572322
0.03132041001
0.03707972696
0.03627021203
-0.03796564099
-0.03978135658
-0.04024989961
-0.04020709156
-0.04022710943
-0.04039953561
-0.04055902444
-0.04049576551
-0.04000276869
-0.03885019737
-0.03674111149
-0.03326568058
-0.02788913759
-0.01996416576
-0.008866000026
0.005659783027
0.02283162916
0.0399143279
0.0518607939
0.05534882089
-0.05139213698
-0.05210882957
-0.05109008542
-0.04972927727
-0.04888502478
-0.04854786597
-0.04842453112
-0.04823323679
-0.04773139829
-0.04665648077
-0.04466043493
-0.04123647854
-0.0356702083
-0.02700704551
-0.01411154812
0.004028339646
0.02746528596
0.05367897918
0.07567634947
0.08797103801
-0.07081810505
-0.06825649528
-0.06356909722
-0.05933134968
-0.05668381453
-0.05526425308
-0.05449494892
-0.05393415075
-0.05325012789
-0.05210148093
-0.05006116795
-0.04651959078
-0.04057420473
-0.0309679043
-0.0160239497
0.006239984777
0.03730703671
0.07601764232
0.1139820579
0.1427655191
-0.102695785
-0.08977253876
-0.07621036789
-0.0664309787
-0.06088938172
-0.05801606935
-0.05655212832
-0.05570497618
-0.05494006326
-0.05377836835
-0.05168205212
-0.04791727368
-0.0414056299
-0.03058131844
-0.01321804255
0.01375156147
0.05390550878
0.1094938283
0.1735485035
0.2352173488
-0.1739007554
-0.1181984489
-0.08450099828
-0.06638265929
-0.05794772522
-0.0543217372
-0.05298099457
-0.05258335001
-0.05232571084
-0.05159750695
-0.04977015675
-0.04602064128
-0.03914390876
-0.02732643394
-0.007813693311
0.0236284901
0.07331474791
0.1501408003
0.2583545855
0.4039570683
-0.3521012039
-0.1566731525
-0.0801156108
-0.05523411048
-0.04643243161
-0.04386054385
-0.04401625404
-0.04514933555
-0.0462698577
-0.04670748701
-0.04582559027
-0.04280591553
-0.03645216276
-0.02486527156
-0.00496847965
0.0285846875
0.08587023262
0.1896550962
0.3763453949
0.689594888
)


// ************************************************************************* //
