/*--------------------------------*- C++ -*----------------------------------*\
  =========                 |
  \\      /  F ield         | OpenFOAM: The Open Source CFD Toolbox
   \\    /   O peration     | Website:  https://openfoam.org
    \\  /    A nd           | Version:  13
     \\/     M anipulation  |
\*---------------------------------------------------------------------------*/
FoamFile
{
    format      ascii;
    class       surfaceScalarField;
    location    "5";
    object      phi;
}
// * * * * * * * * * * * * * * * * * * * * * * * * * * * * * * * * * * * * * //

dimensions      [0 3 -1 0 0 0 0];

internalField   nonuniform List<scalar> 
760
(
-1.347904818e-05
1.347881289e-05
-6.43746019e-05
5.089553693e-05
-0.000139812964
7.543832555e-05
-0.0002252193845
8.540635391e-05
-0.0003103482112
8.512880872e-05
-0.0003878798133
7.753160992e-05
-0.00045237149
6.449170976e-05
-0.0004995116902
4.714021606e-05
-0.0005258150784
2.630343284e-05
-0.0005286965548
2.881503549e-06
-0.000506817505
-2.187903286e-05
-0.0004606136084
-4.620385168e-05
-0.0003928469697
-6.776660708e-05
-0.0003090081337
-8.383884558e-05
-0.0002173816285
-9.162654189e-05
-0.0001285870226
-8.879461195e-05
-5.443653964e-05
-7.415038182e-05
-5.976408878e-06
-4.846001745e-05
1.126964485e-05
-1.724597932e-05
1.126978277e-05
-5.782339507e-05
7.130219863e-05
-0.0002030596999
0.0001961318279
-0.000403980414
0.0002763591068
-0.0006292813428
0.0003107073485
-0.0008544225999
0.000310270137
-0.001060566647
0.0002836757202
-0.001233113077
0.0002370381971
-0.001360459909
0.0001744870259
-0.00143342517
9.926866309e-05
-0.001445413526
1.486983296e-05
-0.00139317198
-7.412065153e-05
-0.001277958384
-0.0001614176
-0.001106795187
-0.0002389300096
-0.000893339512
-0.0002972946205
-0.0006579385112
-0.0003270274438
-0.0004263235795
-0.0003204094171
-0.0002264649197
-0.0002740089605
-8.322389742e-05
-0.000191700911
-1.148577866e-05
-8.898395293e-05
-2.160881656e-07
-9.820904559e-05
0.0001695111969
-0.0003301507646
0.0004280733989
-0.0006421913118
0.0005883996018
-0.0009901067279
0.0006586227558
-0.0013387919
0.0006589553231
-0.001660457995
0.0006053418359
-0.001932884114
0.0005094643428
-0.002137982375
0.0003795852962
-0.002261151822
0.0002224381512
-0.002291589936
4.530800352e-05
-0.002223410964
-0.0001422995339
-0.002057398707
-0.0003274297805
-0.001802920526
-0.0004934082288
-0.001479341246
-0.0006208739946
-0.001116254341
-0.0006901143181
-0.0007516551631
-0.00068500851
-0.0004273253444
-0.000598338752
-0.0001812261338
-0.000437800052
-3.821223076e-05
-0.0002319978535
-3.842837881e-05
-0.0001337152504
0.000303226464
-0.0004455042945
0.0007398623729
-0.0008619470773
0.001004842347
-0.001326076244
0.001122751932
-0.001793543959
0.001126423052
-0.002229234044
0.001041031892
-0.002604551109
0.0008847813655
-0.002895477213
0.0006705113659
-0.003081724657
0.0004086856407
-0.003147128179
0.0001107115613
-0.003081187192
-0.0002082405187
-0.00288150881
-0.0005271081748
-0.002556781468
-0.0008181356036
-0.002129284522
-0.001048370987
-0.001636076873
-0.001183321983
-0.001127474811
-0.001193610561
-0.0006615959274
-0.001064217479
-0.0002946182817
-0.0008047776836
-6.880637791e-05
-0.0004578094104
-0.0001072347359
-0.000166815344
0.0004700417568
-0.0005544258846
0.001127472878
-0.001072182762
0.001522599213
-0.001651183753
0.001701752931
-0.002239028007
0.001714267321
-0.002794612429
0.001596616315
-0.003284015329
0.001374184294
-0.003677628344
0.001064124434
-0.003948806245
0.0006798636557
-0.004074179349
0.0002360847159
-0.004035646763
-0.0002467731678
-0.003823656844
-0.0007390982115
-0.003441883461
-0.001199909049
-0.002911701514
-0.001578552876
-0.002275611725
-0.001819411657
-0.001597391841
-0.001871830435
-0.0009566518167
-0.001704957365
-0.0004364113586
-0.001325018397
-0.000105828157
-0.0007883926328
-0.0002130627429
-0.0001985572629
0.0006685989847
-0.0006594981235
0.001588413738
-0.001276771195
0.002139872297
-0.001971119255
0.002396101012
-0.002683649959
0.002426798046
-0.003368797825
0.002281764195
-0.00398849947
0.001993885987
-0.004507995799
0.00158362083
-0.004893601311
0.001065469238
-0.005112653659
0.0004551370122
-0.005135886486
-0.0002235405068
-0.004941532444
-0.0009334523494
-0.004522426028
-0.001619015366
-0.003893376773
-0.002207601927
-0.003098567801
-0.002614220483
-0.002215527835
-0.002754870382
-0.001351527981
-0.002568957311
-0.0006283639151
-0.002048181989
-0.0001563671669
-0.001260389433
-0.0003694297509
-0.0002288348102
0.0008974337827
-0.0007599807161
0.00211955969
-0.001473656965
0.002853548603
-0.002282213288
0.003204657378
-0.003122232535
0.003266817335
-0.003945615531
0.003105147246
-0.004711796421
0.002760066945
-0.005381842959
0.002253667394
-0.005914935033
0.001598561256
-0.006267532512
0.0008077343197
-0.006395970696
-9.510254666e-05
-0.006260707429
-0.001068715698
-0.005836784073
-0.002042938636
-0.005124334583
-0.002920051408
-0.004162000299
-0.003576554897
-0.003037817736
-0.003879052634
-0.001891257799
-0.0037155173
-0.0008974452265
-0.003041994153
-0.0002294071784
-0.001928427395
-0.0005988369918
-0.0002565874844
0.001154021289
-0.0008520903874
0.00271506263
-0.001654933599
0.003656391856
-0.002571094955
0.00412081877
-0.003534825766
0.004230548212
-0.004497809876
0.00406813145
-0.005419239034
0.003681496141
-0.006257927464
0.003092355738
-0.006967125668
0.002307759279
-0.007492493314
0.001333101882
-0.007773517968
0.0001859221367
-0.007749885356
-0.001092348264
-0.007371074305
-0.002421749735
-0.006612403911
-0.003678721859
-0.005495018956
-0.0046939397
-0.004107359955
-0.005266711679
-0.002619395146
-0.0052034821
-0.001273535748
-0.004387853536
-0.0003356900273
-0.002866272865
-0.0009345270275
-0.0002802483734
0.001434269697
-0.000930206202
0.00336502044
-0.001808409518
0.004534595172
-0.00281619931
0.00512860857
-0.003887611621
0.005301960601
-0.004976611912
0.005157131861
-0.006044983078
0.00474986735
-0.007052361557
0.004099734132
-0.007949189317
0.003204586868
-0.008673042938
0.00205695545
-0.009148553503
0.0006614326703
-0.009293115252
-0.0009477866049
-0.009026505683
-0.00268835916
-0.008288848099
-0.004416379366
-0.007067333023
-0.00591545488
-0.005430909973
-0.006903134475
-0.003565391751
-0.007069000064
-0.001785895624
-0.00616734981
-0.0004879332552
-0.004164235229
-0.001422460262
-0.0002987591394
0.001733028841
-0.0009892137988
0.004055474993
-0.001921081043
0.005466462402
-0.002992003503
0.006199531043
-0.004137514129
0.006447471286
-0.005316262062
0.006335879879
-0.006495815168
0.005929420547
-0.00764082639
0.005244745468
-0.008704270813
0.004268031369
-0.009621969874
0.002974654486
-0.01031056481
0.001350027472
-0.01066943646
-0.0005889148473
-0.01059083067
-0.002766965012
-0.009972889808
-0.005034320257
-0.00875117914
-0.007137165488
-0.00694548678
-0.008708826829
-0.004723239408
-0.009291247347
-0.002455646657
-0.008434942468
-0.0007005983574
-0.005919283449
-0.002123058501
-0.0003131321155
0.002046160915
-0.00102820341
0.004770546135
-0.001984823985
0.006423083007
-0.003076555876
0.007291263042
-0.004241643838
0.007612559321
-0.00544561174
0.00753984777
-0.006665108727
0.007148917585
-0.007874754512
0.00645439135
-0.009037278652
0.005430555513
-0.01009654964
0.00403392534
-0.01097348434
0.002226962313
-0.01155938766
-3.011649092e-06
-0.01173420529
-0.002592147342
-0.01135365454
-0.005414871029
-0.01029028242
-0.008200537197
-0.008481242854
-0.0105178663
-0.006020569816
-0.01175192045
-0.003281253937
-0.0111742583
-0.0009883101787
-0.008212227111
-0.003111368618
-0.0003288116375
0.002374972482
-0.001055657503
0.005497391837
-0.002004142496
0.007371568013
-0.003061889168
0.008349009874
-0.004171164955
0.008721835272
-0.005306782546
0.008675465369
-0.006457826903
0.008299962002
-0.00761392776
0.007610492137
-0.008755341979
0.006571969478
-0.009845362802
0.005123946104
-0.01082342027
0.003205019622
-0.01160330445
0.0007768725615
-0.01205330877
-0.002142143245
-0.01201524389
-0.005452935771
-0.01130037047
-0.008915410516
-0.009738569934
-0.0120796668
-0.00728510229
-0.01420538796
-0.004215283794
-0.01424407673
-0.00136139979
-0.01106611106
-0.004472768455
-0.0003592533566
0.002734225814
-0.001096067543
0.006234205939
-0.002004857947
0.008280358313
-0.002964956199
0.00930910803
-0.003925984843
0.009682863959
-0.004876130435
0.009625610976
-0.005820935924
0.00924476751
-0.006769817706
0.008559373754
-0.007727448581
0.007529600292
-0.008686988327
0.006083485751
-0.009622742154
0.004140773401
-0.01048107371
0.001635203947
-0.01116410483
-0.001459111987
-0.01151960466
-0.005097435895
-0.01132492794
-0.009110087397
-0.01030541693
-0.0130991779
-0.008226581037
-0.01628422377
-0.005135847848
-0.01733480983
-0.001816556712
-0.01438540211
-0.006289325066
-0.0004313659626
0.00316559177
-0.00119736493
0.00700020498
-0.002040812941
0.009123806317
-0.002833431852
0.01010172667
-0.003541419759
0.01039085165
-0.004174564596
0.01025875578
-0.004760644803
0.009830847579
-0.005333065496
0.009131794218
-0.005924991719
0.008121526594
-0.006565028601
0.006723522534
-0.007270988847
0.004846733573
-0.008039867917
0.002404083155
-0.008828926031
-0.000670053828
-0.009533290077
-0.004393071793
-0.009945360569
-0.008698016925
-0.009729201733
-0.01331533676
-0.008455620926
-0.01755780452
-0.00582480438
-0.01996562637
-0.002321597868
-0.01788860856
-0.008610922823
-0.0005944466344
0.00376003828
-0.001436818368
0.00784257661
-0.00219065547
0.009877643534
-0.002733066529
0.01064413776
-0.003068462655
0.01072624762
-0.00324356146
0.01043385453
-0.003316906679
0.009904192638
-0.003349509331
0.00916439705
-0.003403551084
0.008175568209
-0.003542292332
0.006862263833
-0.003826675508
0.005131116761
-0.004308324883
0.002885732334
-0.005013042255
3.466339727e-05
-0.005917394824
-0.003488719198
-0.00688906367
-0.00772634793
-0.00761535078
-0.01258904954
-0.007539521325
-0.01763363394
-0.005964654623
-0.02154049308
-0.002792352688
-0.02106091039
-0.01140327546
-0.0009286389901
0.004688677202
-0.00191099655
0.008824933795
-0.002518320046
0.01048496675
-0.002680551857
0.01080636952
-0.002484272615
0.01052996833
-0.002037878684
0.009987460521
-0.001441426562
0.009307740349
-0.0007855793375
0.00850854938
-0.0001584994317
0.007548488308
0.0003498748882
0.006353889534
0.0006442693256
0.004836722374
0.0006266333261
0.002903368479
0.0002022641303
0.0004590327067
-0.0006879944732
-0.002598460587
-0.00204367882
-0.006370663608
-0.003677184324
-0.01095554409
-0.005051880722
-0.01625893754
-0.005138447234
-0.02145392643
-0.003040595844
-0.02315876169
-0.01444387121
-0.001543584186
0.006232261511
-0.002641018915
0.009922368632
-0.002881659305
0.01072560711
-0.002382644912
0.01030735508
-0.00138956842
0.009536891736
-0.0001010773415
0.008698969018
0.001337422257
0.007869240887
0.002811626929
0.00703434476
0.004219092612
0.006141022562
0.005454972671
0.005118009283
0.006405089387
0.00388660553
0.006942777818
0.002365680176
0.006927771098
0.0004740396311
0.006219150005
-0.001889839498
0.004693910241
-0.004845423777
0.00234269672
-0.008604330614
-0.000487475225
-0.01342876565
-0.002776964158
-0.01916443737
-0.00271778809
-0.02321793774
-0.01716165925
-0.002394766892
0.008627028264
-0.003101014164
0.01062861561
-0.002239350241
0.009863943101
-0.0004544914097
0.008522496052
0.001770121688
0.007312278733
0.004166172607
0.006302918156
0.006578993025
0.00545642028
0.008905702535
0.004707635156
0.0110584901
0.003988234987
0.01294393144
0.003232567996
0.01445207292
0.002378464049
0.01545068877
0.001367064353
0.01577807483
0.0001466535959
0.01525960239
-0.001371367106
0.01368133797
-0.003267159272
0.01083930078
-0.005762293492
0.006692459433
-0.009281924191
0.001961542066
-0.01443351995
-0.001130294274
-0.02012610145
-0.01829195362
-0.002127131975
0.01075416041
-6.625514179e-05
0.008567738535
0.003671798106
0.006125889956
0.007514843371
0.004679450691
0.01118971992
0.003637401826
0.01459705589
0.002895582105
0.01770419708
0.002349278921
0.0204975324
0.0019142998
0.02295310511
0.001532662219
0.02502352869
0.001162144454
0.02663214462
0.000769848194
0.02766814981
0.0003310591629
0.02799844138
-0.0001836380109
0.02744331555
-0.0008162412866
0.02577504283
-0.00159888643
0.02267913732
-0.002666388034
0.01774801854
-0.004350805376
0.01065935126
-0.007344852594
0.002865715899
-0.01233246611
-0.01542623787
0.0107541605
0.01932189882
0.02544778862
0.03012723937
0.03376464109
0.03666022324
0.03900950213
0.04092380194
0.04245646416
0.04361860851
0.04438845668
0.04471951589
0.04453587785
0.04371963658
0.04212075015
0.03945436212
0.03510355662
0.02775870398
0.01542623786
)
;

boundaryField
{
    movingWall
    {
        type            calculated;
        value           uniform 0;
    }
    fixedWalls
    {
        type            calculated;
        value           uniform 0;
    }
    frontAndBack
    {
        type            empty;
    }
}


// ************************************************************************* //
