/*--------------------------------*- C++ -*----------------------------------*\
  =========                 |
  \\      /  F ield         | OpenFOAM: The Open Source CFD Toolbox
   \\    /   O peration     | Website:  https://openfoam.org
    \\  /    A nd           | Version:  13
     \\/     M anipulation  |
\*---------------------------------------------------------------------------*/
FoamFile
{
    format      ascii;
    class       surfaceScalarField;
    location    "5";
    object      phi;
}
// * * * * * * * * * * * * * * * * * * * * * * * * * * * * * * * * * * * * * //

dimensions      [0 3 -1 0 0 0 0];

internalField   nonuniform List<scalar> 
760
(
-4.522716294e-06
4.522395728e-06
-4.368463921e-05
3.916202508e-05
-0.0001133832282
6.969883079e-05
-0.0002007363516
8.735331643e-05
-0.0002937169965
9.298077054e-05
-0.0003832425014
8.952553198e-05
-0.0004627299142
7.948741954e-05
-0.0005272038069
6.447422015e-05
-0.0005726075583
4.540404559e-05
-0.0005955222903
2.291509282e-05
-0.0005932532873
-2.268697472e-06
-0.0005642078359
-2.90456129e-05
-0.0005085457599
-5.566187939e-05
-0.0004288924618
-7.96534039e-05
-0.0003311474706
-9.774529466e-05
-0.0002251081757
-0.0001060387789
-0.0001245233196
-0.0001005846943
-4.587124416e-05
-7.865296961e-05
-3.921546262e-06
-4.194971138e-05
-3.920869279e-06
-4.069783975e-05
4.522029161e-05
-0.0001532010763
0.0001516657136
-0.0003272734338
0.000243771638
-0.0005367559551
0.0002968359195
-0.000756996603
0.0003132216072
-0.0009681825933
0.0003007120714
-0.001155142547
0.0002664475145
-0.001306010942
0.0002153436137
-0.001411087943
0.0001504819122
-0.001462357063
7.41844447e-05
-0.001453743077
-1.088177576e-05
-0.001382029228
-0.0001007602628
-0.001248201289
-0.0001894905472
-0.001059134418
-0.0002687191812
-0.0008291220863
-0.0003277570014
-0.0005807414497
-0.0003544203442
-0.0003441480661
-0.0003371793566
-0.0001534686803
-0.000269333547
-3.879786387e-05
-0.0001566222789
-4.271739329e-05
-7.684055054e-05
0.0001220610895
-0.0002633574864
0.0003381832141
-0.0005279289705
0.0005083434278
-0.0008345420333
0.0006034488889
-0.001150923415
0.0006296028887
-0.001451009849
0.0006007994493
-0.001714517377
0.0005299554059
-0.001925468884
0.0004262957733
-0.002070919336
0.00029593342
-0.002140397605
0.0001436619359
-0.002126179684
-2.509995445e-05
-0.002024348198
-0.0002025910973
-0.001836451347
-0.0003773871922
-0.001571557959
-0.0005336130063
-0.001248228638
-0.0006510866569
-0.0008956816626
-0.0007069672226
-0.000553041125
-0.0006798188682
-0.0002652349875
-0.0005571398238
-7.431681956e-05
-0.0003475435152
-0.0001170332401
-0.0001065561147
0.0002286173082
-0.000356417968
0.0005880450797
-0.0006980831037
0.0008500085672
-0.001085006297
0.0009903720273
-0.001478797004
0.001023393129
-0.001849385989
0.0009713887665
-0.00217356372
0.0008541332738
-0.002433006608
0.000685737951
-0.002612731378
0.0004756583209
-0.002700401549
0.0002313323526
-0.002686578479
-3.892366842e-05
-0.002565905335
-0.000323264333
-0.002339078807
-0.000604211773
-0.00201545146
-0.000857239268
-0.001615729164
-0.001050810474
-0.001173900497
-0.00114879781
-0.0007370323887
-0.001116686691
-0.0003613061015
-0.0009328649429
-0.0001034089498
-0.0006054403065
-0.0002204417107
-0.0001311807951
0.0003597981253
-0.0004361712168
0.0008930352235
-0.0008462386192
0.001260075767
-0.001304626811
0.001448760326
-0.0017672193
0.001485984925
-0.002200864284
0.001405032765
-0.002580555233
0.001233823782
-0.002886598725
0.0009917808667
-0.003102552783
0.0006916113814
-0.003214236296
0.0003430161997
-0.003209869711
-4.328866699e-05
-0.003081387806
-0.000451745427
-0.002826810916
-0.0008587881994
-0.00245371178
-0.001230338939
-0.001983185955
-0.001521337307
-0.001453297982
-0.001678685462
-0.0009201469177
-0.001649839437
-0.0004541594832
-0.001398852639
-0.0001299752157
-0.0009296230259
-0.0003504170992
-0.0001539960465
0.0005137941137
-0.0005109425603
0.001249981547
-0.0009866805715
0.001735813344
-0.001514444722
0.001976524243
-0.002044545014
0.002016084562
-0.002541236196
0.001901722575
-0.002978402762
0.001670988807
-0.003335598322
0.001348976536
-0.003595229261
0.0009512427762
-0.003741075989
0.0004888630356
-0.003758166864
-2.61967809e-05
-0.003634180531
-0.0005757306386
-0.003362237225
-0.001130731201
-0.002945577218
-0.001647000299
-0.002403469959
-0.002063446055
-0.001777214754
-0.002304939799
-0.001133581916
-0.002293473651
-0.000561746806
-0.001970687595
-0.0001600865483
-0.001331282074
-0.0005105033566
-0.0001780436498
0.0006918377106
-0.0005887727334
0.00166071065
-0.001132788634
0.002279829008
-0.001732940293
0.002576675203
-0.00233401461
0.002617157777
-0.002898133961
0.002465841348
-0.00339874548
0.002171599242
-0.003815292143
0.001765523198
-0.004129417238
0.001265368966
-0.004322789223
0.0006822354783
-0.00437645427
2.746780441e-05
-0.004272259061
-0.0006799268026
-0.003995782744
-0.001407209379
-0.003542533763
-0.002100250127
-0.002926453045
-0.00267952539
-0.002189859259
-0.003041532975
-0.00141118724
-0.003072145551
-0.0007040858505
-0.00267778754
-0.0002003231064
-0.001835044229
-0.0007108253843
-0.0002057692715
0.0008976070071
-0.0006760643221
0.002131005822
-0.001294825523
0.002898590322
-0.00197341602
0.003255265463
-0.002651082861
0.003294823538
-0.003288448981
0.003103207322
-0.003859441222
0.002742591434
-0.004344338649
0.0022504207
-0.004724799137
0.001645829319
-0.004980769245
0.000938205109
-0.005088989895
0.0001356873482
-0.00502414815
-0.000744768111
-0.004761482898
-0.001669875336
-0.004284394828
-0.002577339009
-0.003596003772
-0.003367914158
-0.002734687592
-0.003902849633
-0.001789239285
-0.004017593609
-0.0009038397078
-0.003563187645
-0.0002582509972
-0.002480632729
-0.0009690760549
-0.0002392176363
0.001136824752
-0.0007777126971
0.002669501355
-0.001479853057
0.003600730953
-0.002243686609
0.004019099351
-0.003002902669
0.004054039239
-0.003717558595
0.003817863323
-0.004363385249
0.003388418315
-0.004922937603
0.002809973584
-0.005379295979
0.002102187355
-0.005711873839
0.001270782693
-0.005893867511
0.0003176796453
-0.005892091707
-0.0007465436049
-0.005669257072
-0.0018927091
-0.005191659756
-0.003054937437
-0.004443816733
-0.004115758194
-0.00345100983
-0.004895658198
-0.002306152182
-0.005162450784
-0.001187803319
-0.004681536582
-0.0003434828078
-0.003324950857
-0.001312557717
-0.0002804770457
0.001417301999
-0.0008978341757
0.003286859262
-0.00169240875
0.004395305615
-0.002546416657
0.004873107425
-0.00338812053
0.004895743335
-0.00417838231
0.004608126041
-0.00489657242
0.004106609123
-0.005529573329
0.00344297498
-0.006064120956
0.002636734159
-0.006481415651
0.001688076496
-0.006753233461
0.0005894973118
-0.006839714134
-0.00066006366
-0.006690393286
-0.002042030131
-0.006250069851
-0.003495260618
-0.00547525896
-0.004890570002
-0.004363841102
-0.006007075017
-0.002998090138
-0.00652820114
-0.001587185819
-0.006092438948
-0.0004688429898
-0.004443292839
-0.001781400602
-0.0003322724229
0.001749574683
-0.001040720463
0.003995307999
-0.001935214393
0.005289799514
-0.002879069209
0.005816962296
-0.003795735335
0.005812409923
-0.004648929006
0.005461320963
-0.005424120202
0.004881800809
-0.006115221688
0.004134075566
-0.006715726679
0.003237238545
-0.00721226801
0.00218461688
-0.007579258324
0.0009564896024
-0.007773946523
-0.0004653741356
-0.007735444718
-0.002080533776
-0.007385466928
-0.003845240037
-0.006643819436
-0.005632219387
-0.005462303888
-0.007188589204
-0.003885900723
-0.00810460438
-0.002134107793
-0.007844229807
-0.0006511818652
-0.005926218662
-0.002432583448
-0.000398824836
0.002148399562
-0.001212000069
0.004808483235
-0.002209504801
0.006287304289
-0.003232617871
0.006840075799
-0.004201853642
0.006781645976
-0.005087046852
0.006346514363
-0.005883096273
0.005677849965
-0.006594333154
0.004845311337
-0.007224889484
0.003867795263
-0.007771691043
0.002731419504
-0.008217807869
0.0014026075
-0.008524338084
-0.0001588440099
-0.008628087176
-0.001976786021
-0.008431686473
-0.004041640109
-0.007814677559
-0.006249226986
-0.006663966633
-0.008339300088
-0.004948488436
-0.009820082499
-0.002850395285
-0.009942323818
-0.0009110819795
-0.007865532552
-0.003343664989
-0.0004872974824
0.002635696879
-0.001420149231
0.005741334522
-0.002514404224
0.007381559099
-0.003587654238
0.007913325704
-0.004562427965
0.007756419129
-0.005420356023
0.007204442729
-0.006170549445
0.006428043197
-0.00683192346
0.005506685999
-0.007423580214
0.004459451992
-0.007958105147
0.003265944965
-0.008434741162
0.001879244279
-0.008826817367
0.0002332313424
-0.009083781244
-0.00171982323
-0.009100852557
-0.004024568398
-0.008725019862
-0.006625058636
-0.007768152056
-0.009296170491
-0.006079527356
-0.01150870767
-0.003722812226
-0.01229904003
-0.001269526177
-0.01031881899
-0.004613191835
-0.0006104811214
0.003246177811
-0.001678429502
0.0068092824
-0.002843810293
0.008546939158
-0.003904724819
0.008974239564
-0.004797821401
0.00864951451
-0.005527081646
0.007933703134
-0.006123164334
0.007024125999
-0.006624590055
0.006008111511
-0.007069408464
0.004904271277
-0.007490103885
0.003686641246
-0.007908361737
0.00229750205
-0.008322277184
0.0006471463688
-0.008705886904
-0.001336212802
-0.008971529663
-0.003758925362
-0.00895728268
-0.006639306016
-0.008410678874
-0.009842773799
-0.007030787933
-0.01288859858
-0.004657871786
-0.01467195657
-0.001736470871
-0.01324022026
-0.006349663897
-0.0007915446917
0.004037722243
-0.002006147923
0.008023884934
-0.003175806462
0.009716597327
-0.004100544034
0.009898976784
-0.00475931196
0.009308281969
-0.005198140524
0.008372529874
-0.005480304126
0.007306290914
-0.005669192867
0.006197001724
-0.005823818392
0.005058897403
-0.005996968138
0.003859791187
-0.006233453476
0.002533987037
-0.006570162476
0.00098385571
-0.007007663785
-0.0008987105953
-0.007509835346
-0.003256754643
-0.007945874982
-0.006203269317
-0.008042021134
-0.009746626813
-0.007356809569
-0.01357381062
-0.005413533412
-0.01661523342
-0.002279423068
-0.01637433423
-0.008629087644
-0.001067128744
0.005104850673
-0.002421579444
0.009378335147
-0.003436436623
0.01073145436
-0.003984939839
0.01044747927
-0.00415179176
0.009475132896
-0.004057999135
0.008278737438
-0.003812397505
0.007060689775
-0.003504785251
0.005889390089
-0.003211542599
0.004765654962
-0.002999063637
0.003647311984
-0.002929426821
0.002464351173
-0.003065345823
0.001119777017
-0.003455478424
-0.0005085769794
-0.004126450942
-0.002585781983
-0.005030739543
-0.005298980034
-0.005952037765
-0.008825328924
-0.006387293974
-0.01313855442
-0.005518942487
-0.01748358625
-0.002750948321
-0.01914232729
-0.01138003625
-0.001475344124
0.00658019471
-0.002886412229
0.01078940376
-0.003362080877
0.01120712294
-0.003074270209
0.01015966851
-0.002341348051
0.008742211269
-0.001391697702
0.007329088267
-0.0003787910014
0.006047783979
0.0005947584128
0.00491584067
0.00145755257
0.00390286021
0.002147154683
0.002957709464
0.002599601242
0.002011905193
0.00274208687
0.0009772910921
0.002490380413
-0.0002568724017
0.001749497756
-0.001844898293
0.000453431745
-0.004002909367
-0.001346324966
-0.007025574276
-0.003249414238
-0.01123546447
-0.004218654858
-0.01651434643
-0.002775530531
-0.0205854505
-0.01415556782
-0.002037518879
0.008617713829
-0.002965619431
0.01171750408
-0.001925984039
0.010167489
-1.989938868e-05
0.008253584394
0.002128159767
0.006594152219
0.004225370103
0.005231878158
0.00614509306
0.004128060616
0.007826761667
0.003234171749
0.009236665942
0.002492955939
0.01034799413
0.001846381562
0.01112445331
0.001235445553
0.01150519381
0.0005965491569
0.01139645109
-0.0001481295526
0.01066066406
-0.001109110122
0.009109868699
-0.002452114619
0.006569337339
-0.004485042944
0.00310016837
-0.007766295898
-0.000444740767
-0.01296943544
-0.001775628328
-0.01925456451
-0.01593119427
-0.002363495583
0.01098120938
0.0002383017906
0.009115707015
0.004657620767
0.005748169949
0.00881919523
0.004092010687
0.01240968321
0.003003664483
0.01543259879
0.002208962076
0.01792773817
0.001632920699
0.01994961333
0.001212295536
0.02154758794
0.0008949798673
0.02275284455
0.0006411244565
0.02356949839
0.0004187917508
0.02396592624
0.0002001204973
0.0238652026
-4.740556235e-05
0.02312566354
-0.000369568453
0.02150646379
-0.0008329172487
0.01862726046
-0.001605840387
0.01401320975
-0.003152244072
0.007496964798
-0.006453191039
0.0009180977652
-0.01267569655
-0.01501309674
0.01098120941
0.02009691685
0.02584508728
0.02993709813
0.03294076265
0.03514972495
0.03678264562
0.03799494063
0.03888992007
0.03953104415
0.03994983494
0.04014995596
0.04010255156
0.03973298226
0.03890006783
0.03729422813
0.03414198291
0.02768879291
0.01501309731
)
;

boundaryField
{
    movingWall
    {
        type            calculated;
        value           uniform 0;
    }
    fixedWalls
    {
        type            calculated;
        value           uniform 0;
    }
    frontAndBack
    {
        type            empty;
    }
}


// ************************************************************************* //
