/*--------------------------------*- C++ -*----------------------------------*\
  =========                 |
  \\      /  F ield         | OpenFOAM: The Open Source CFD Toolbox
   \\    /   O peration     | Website:  https://openfoam.org
    \\  /    A nd           | Version:  13
     \\/     M anipulation  |
\*---------------------------------------------------------------------------*/
FoamFile
{
    format      ascii;
    class       volVectorField;
    location    "5";
    object      U_0;
}
// * * * * * * * * * * * * * * * * * * * * * * * * * * * * * * * * * * * * * //

dimensions      [0 1 -1 0 0 0 0];

internalField   nonuniform List<vector> 
400
(
(-1.402748859e-05 3.946479111e-06 0)
(-0.0006307124151 0.0003840991283 -1.144844505e-23)
(-0.001910185857 0.0007946647516 0)
(-0.003456275908 0.001108213235 0)
(-0.005042853932 0.001283518468 2.319411852e-25)
(-0.006522924359 0.00130786376 3.670117074e-24)
(-0.007795099209 0.001187139715 9.250926964e-24)
(-0.008784739727 0.0009396370432 2.564088966e-23)
(-0.009431754404 0.0005936548754 -3.734170538e-25)
(-0.009687489612 0.0001863640958 -6.612403784e-24)
(-0.009517992572 -0.0002373827188 8.900610485e-24)
(-0.008911761274 -0.0006273535997 -8.659698708e-23)
(-0.007890049353 -0.0009322748122 -9.762344627e-23)
(-0.006516929793 -0.001106904553 -1.144493703e-22)
(-0.004906233332 -0.001121153264 7.194178122e-24)
(-0.003222138948 -0.0009699891967 -7.215081002e-24)
(-0.001669508545 -0.0006815301722 -4.309257707e-22)
(-0.0004768556886 -0.0003175960229 0)
(0.0002020072382 1.396742897e-05 1.297059821e-24)
(0.0001462030624 0.0001931561582 -1.534155086e-22)
(-0.0002227042471 0.0007706141082 1.023750634e-25)
(-0.002253064908 0.00286716045 1.153742809e-23)
(-0.005669595177 0.004631980185 9.85353631e-26)
(-0.009745856065 0.00573647434 -3.112230379e-25)
(-0.01392878705 0.006165869539 2.737532887e-25)
(-0.01785457637 0.005968483074 -1.303325029e-24)
(-0.021252626 0.005217524481 1.615383724e-23)
(-0.0239181238 0.00400018502 -2.496270305e-23)
(-0.02568871852 0.002420270162 2.009785572e-23)
(-0.02643745941 0.0006047012398 7.520844557e-24)
(-0.02607946318 -0.001291777508 -9.701084338e-24)
(-0.02458890507 -0.003087358067 1.27495921e-24)
(-0.02202247571 -0.004582736252 5.416736122e-23)
(-0.01854239892 -0.005582072703 -3.304519984e-24)
(-0.01443146576 -0.005924614699 6.689142473e-24)
(-0.01009159465 -0.005524643671 -2.134303949e-22)
(-0.006015108788 -0.004413597286 2.192065185e-22)
(-0.002726873365 -0.002778528671 -2.652798261e-24)
(-0.0005940180339 -0.001001163303 2.719680628e-24)
(-7.597779187e-07 0.0002492670649 0)
(-0.0003247143259 0.002476679356 -1.959868701e-25)
(-0.003697104321 0.007192599918 7.732513911e-24)
(-0.009022147815 0.01068470274 -8.529105291e-24)
(-0.01532201488 0.01268487058 -2.532664214e-26)
(-0.02179060128 0.01328122686 2.487990194e-26)
(-0.02790176121 0.01263368439 4.01941667e-25)
(-0.03324716898 0.01091606711 -1.546868056e-23)
(-0.03750767552 0.008304509063 -1.451288426e-24)
(-0.04042479469 0.004990933689 -2.105790431e-23)
(-0.04179216765 0.001203813332 0)
(-0.04146551854 -0.002774422946 0)
(-0.03938767271 -0.00660149009 4.296986152e-23)
(-0.03562392248 -0.009886212769 4.567520816e-23)
(-0.03039774104 -0.01222350994 -3.111978777e-24)
(-0.02411545351 -0.01325341977 1.029052134e-22)
(-0.01736636874 -0.012742943 2.068288683e-22)
(-0.01088092116 -0.01068091854 1.753934054e-22)
(-0.005436595856 -0.007371659794 5.016506168e-24)
(-0.001638490089 -0.003510831762 -2.337568815e-24)
(-0.0001107338884 -0.0003206977489 0)
(-0.0003709906834 0.004913322791 -2.027167495e-23)
(-0.00496153288 0.01309551869 -7.550897317e-24)
(-0.01207210345 0.01873004211 8.398800589e-24)
(-0.02046766006 0.02178397042 0)
(-0.02911445158 0.02253319451 0)
(-0.03735302972 0.02129482329 0)
(-0.04466284213 0.01836620281 -5.87722618e-25)
(-0.05062546516 0.01402133258 9.530629821e-24)
(-0.05488773552 0.008542192462 0)
(-0.05715051484 0.002261106988 5.624665071e-24)
(-0.05718201764 -0.004401414406 5.526035084e-25)
(-0.05485164998 -0.01091725899 -5.541512924e-25)
(-0.05018098691 -0.01665642327 0)
(-0.04340003655 -0.02093499672 9.340910818e-23)
(-0.03499291356 -0.02310655766 -9.980503526e-23)
(-0.02571466949 -0.02270116561 -9.618583802e-23)
(-0.01655107176 -0.01959779778 -1.775974146e-22)
(-0.008597915368 -0.01419822172 5.795710858e-25)
(-0.002824957401 -0.007549657306 -8.469403878e-23)
(-0.0002066501558 -0.001466317972 0)
(-0.0003847527597 0.008027728544 2.038568714e-23)
(-0.006123753833 0.02048268486 5.52419796e-25)
(-0.0149522986 0.02869008657 -5.398021099e-25)
(-0.02539577635 0.03299179666 0)
(-0.03621869467 0.03394056292 4.23985033e-25)
(-0.04665082445 0.03205504487 -4.181050148e-25)
(-0.05608153611 0.0277695709 1.327941976e-23)
(-0.06400596078 0.02145004149 -8.262935679e-24)
(-0.06997352008 0.01345232699 -3.44475798e-24)
(-0.07357011901 0.004195631328 -5.631215445e-24)
(-0.07443368355 -0.005769013287 0)
(-0.07229716508 -0.01571482077 1.181446715e-24)
(-0.06706111535 -0.0247279636 3.952932375e-23)
(-0.05888323625 -0.0317621788 -9.910665816e-23)
(-0.04826357949 -0.03576311212 5.836913774e-24)
(-0.0361040761 -0.03588050345 1.835379839e-22)
(-0.02369504802 -0.0317529082 -2.719332354e-24)
(-0.01257760885 -0.02380857269 0)
(-0.004275957856 -0.01346931645 3.505870717e-23)
(-0.0002970878683 -0.003262836272 -3.198714223e-23)
(-0.0003861932292 0.01178891911 9.92919504e-23)
(-0.007227502931 0.02930977112 -5.356826938e-25)
(-0.01772223551 0.04055045492 0)
(-0.03019247991 0.0463469758 0)
(-0.04322966028 0.0476180077 -6.614471694e-23)
(-0.05597978768 0.04512748949 -5.700677618e-23)
(-0.06776699611 0.03945336089 -1.470473093e-23)
(-0.07801533763 0.03103307135 -7.001182324e-26)
(-0.08617564872 0.02025935291 3.269207388e-24)
(-0.09169530242 0.007596002552 -4.713772248e-25)
(-0.09403259307 -0.006309393022 -2.279939006e-24)
(-0.09270658582 -0.02054056513 -8.708643818e-24)
(-0.08739627296 -0.03386461551 -9.813797991e-24)
(-0.07807678044 -0.04477759783 -7.375495456e-23)
(-0.06516616638 -0.05165189831 0)
(-0.04966469893 -0.05303344968 -9.298385629e-23)
(-0.03321095394 -0.04808597683 2.60613063e-24)
(-0.01795468613 -0.03710429957 0)
(-0.006252002575 -0.02189210286 5.175842915e-23)
(-0.0004122918288 -0.005925718727 1.273701813e-22)
(-0.0003835843168 0.016171016 -9.857504453e-23)
(-0.008272366039 0.03952702522 2.464919207e-22)
(-0.02035949903 0.05427135108 1.296224853e-22)
(-0.0348062192 0.06185524667 2.869894066e-24)
(-0.05006489587 0.06365097851 -5.711162271e-23)
(-0.06523258899 0.06071026739 6.035921329e-23)
(-0.07960062068 0.05375518105 -2.321139946e-24)
(-0.09254629002 0.04326076241 -7.797864344e-25)
(-0.1034311573 0.0295978329 1.036628465e-24)
(-0.1115512859 0.01320290693 2.117025169e-25)
(-0.1161442159 -0.005249465787 1.941032511e-24)
(-0.1164380768 -0.02469134185 9.549096712e-24)
(-0.1117772268 -0.04357189051 -2.22524048e-23)
(-0.1018123777 -0.05984132631 9.946658365e-23)
(-0.08672643138 -0.07110156729 -2.248898555e-24)
(-0.06749820314 -0.07498067528 0)
(-0.04609635526 -0.06978287836 0)
(-0.02543569498 -0.05534459395 6.488643467e-25)
(-0.009083516342 -0.03377523949 -6.63223669e-25)
(-0.0005857532689 -0.009819358691 7.253499334e-23)
(-0.0003774372206 0.02113305464 0)
(-0.009220181002 0.0510414686 1.620920962e-22)
(-0.02276235041 0.0697445577 7.228128185e-23)
(-0.03904527448 0.07943304429 0)
(-0.05642064664 0.08202189399 1.204592549e-22)
(-0.07397714531 0.07889471902 0)
(-0.09101447342 0.07091626026 -9.666595557e-23)
(-0.106901149 0.05855692482 4.09142106e-24)
(-0.120938981 0.04209032849 0)
(-0.1322868018 0.02182776383 0)
(-0.1399419395 -0.001635287953 -4.459521349e-25)
(-0.1427985931 -0.02717662702 3.102463064e-26)
(-0.1397746576 -0.05297270823 2.210960217e-23)
(-0.1300324881 -0.07638988305 -3.193620845e-23)
(-0.1133091799 -0.09407421715 1.161720856e-24)
(-0.09033212242 -0.1023545479 -2.055128779e-24)
(-0.06324128687 -0.09810602492 2.087524666e-24)
(-0.0357746265 -0.08010200425 0)
(-0.01316273921 -0.05045059876 9.786240446e-25)
(-0.000854023767 -0.01550707426 -4.13820189e-22)
(-0.0003672120863 0.02660412675 0)
(-0.01001560484 0.06368631511 -9.920396364e-23)
(-0.02477768681 0.08674831262 -5.13911981e-22)
(-0.04260928098 0.09884065512 -3.03650845e-22)
(-0.06179792881 0.1025153659 0)
(-0.08146562039 0.09953893896 3.063426988e-22)
(-0.1009679243 0.09092310573 8.52854424e-23)
(-0.1197170798 0.07709384384 -3.513442407e-24)
(-0.137010636 0.05814851155 3.49605557e-24)
(-0.151924131 0.03416107944 0)
(-0.1632625328 0.005510938243 1.690290108e-23)
(-0.1695957483 -0.02678394267 2.0335436e-24)
(-0.1693750165 -0.06074417883 -3.194449249e-23)
(-0.1611548974 -0.0932207582 9.029985556e-24)
(-0.143983522 -0.1198105165 -6.420731575e-23)
(-0.1179829572 -0.1351768702 0)
(-0.08508003878 -0.1340323028 0)
(-0.04963721155 -0.1130762489 0)
(-0.01894028754 -0.07361112227 0)
(-0.001267887796 -0.02378824235 2.445244313e-22)
(-0.0003573423916 0.03248281662 0)
(-0.01061921618 0.07721190325 -2.916031032e-22)
(-0.02625784928 0.1049181706 7.399431637e-22)
(-0.04516377552 0.1196236511 2.923542378e-22)
(-0.06558720466 0.1246224462 0)
(-0.08672167845 0.1221282983 -2.877020234e-22)
(-0.1080278521 0.1133198457 -2.280790418e-23)
(-0.1290257175 0.09855628199 2.366184381e-22)
(-0.1490916262 0.07769614526 1.218283219e-22)
(-0.1673217813 0.05047218829 -2.731396562e-23)
(-0.182451667 0.01689910965 1.298121173e-23)
(-0.1928334722 -0.02229838353 -4.685959735e-24)
(-0.1965285915 -0.06519934126 2.052082783e-22)
(-0.1914681581 -0.1083739195 0)
(-0.1758110376 -0.1464727122 6.423828263e-23)
(-0.1486462044 -0.1722992851 3.642864793e-25)
(-0.1110401453 -0.1776456837 -3.697483307e-25)
(-0.06733172431 -0.1556742115 -1.822542161e-23)
(-0.02689521917 -0.1051935496 -3.602302577e-25)
(-0.001906353274 -0.03573876802 0)
(-0.0003654570896 0.03866215182 0)
(-0.01105882467 0.09131111834 0)
(-0.02715056445 0.1237493036 -4.165316831e-22)
(-0.04646462387 0.1410806102 -1.549711354e-23)
(-0.06722545442 0.1474680152 1.595379021e-23)
(-0.08873346122 0.1456569174 -1.576539842e-23)
(-0.1106023305 0.137037233 -1.701086211e-23)
(-0.1325293007 0.1219121783 -2.143343731e-22)
(-0.1540729177 0.09988037739 5.604959219e-23)
(-0.1744984914 0.0702727438 3.025871203e-23)
(-0.1926674985 0.0326255508 -2.993894639e-23)
(-0.2069235076 -0.01281326215 0)
(-0.2151846276 -0.06457690046 -2.61027937e-23)
(-0.2149281428 -0.119249788 0)
(-0.203371043 -0.1709651126 -2.336350365e-22)
(-0.1782089109 -0.2108590129 2.803625393e-22)
(-0.1388285931 -0.2273241021 0)
(-0.08833752321 -0.208265767 1.856372711e-23)
(-0.03743223421 -0.1470603011 1.535349873e-23)
(-0.002896645246 -0.05273727301 -1.612510587e-22)
(-0.0004363317027 0.04509291263 0)
(-0.01150466567 0.1056935103 7.792163163e-22)
(-0.02762196627 0.1426426813 -2.052913676e-23)
(-0.046526244 0.1622731912 7.70993583e-22)
(-0.06641645651 0.1697884638 -2.06241966e-23)
(-0.08674606736 0.1685745917 2.221347628e-23)
(-0.107333108 0.1603031058 -2.201068206e-23)
(-0.1281211312 0.1452720234 -1.249219571e-23)
(-0.1489562599 0.1228566525 -3.953275912e-22)
(-0.1694310492 0.09199522121 -6.625079957e-24)
(-0.1887563566 0.05169351983 7.118883217e-24)
(-0.2056794727 0.001556639408 2.552265879e-22)
(-0.2182591937 -0.05765269082 -4.288025757e-22)
(-0.2238251695 -0.1231232793 0)
(-0.2190128805 -0.1891899132 6.134212599e-22)
(-0.2000152062 -0.2460675485 -2.646217652e-22)
(-0.1638115693 -0.2789639481 -8.326058645e-24)
(-0.1106499732 -0.2691292126 0)
(-0.05063454873 -0.2003497671 -1.362002162e-23)
(-0.004438682876 -0.0764338749 1.592427798e-22)
(-0.0006680998929 0.05190528733 1.318981525e-23)
(-0.0123767545 0.1202197706 -7.437184285e-22)
(-0.02820284065 0.1609996851 -9.994296026e-22)
(-0.04580110882 0.182086245 -7.237466889e-22)
(-0.06335851915 0.1899810077 0)
(-0.08057582044 0.188843245 2.843420252e-23)
(-0.09754966082 0.1807098345 -5.853510243e-23)
(-0.1145408693 0.1659533846 4.654783363e-23)
(-0.1317744046 0.1438171078 2.319025174e-22)
(-0.1493121497 0.1129367181 -8.854247803e-24)
(-0.166936802 0.07183712043 0)
(-0.1840176432 0.01942975245 -2.765843434e-22)
(-0.1992643732 -0.04438582667 5.999070341e-22)
(-0.2104782434 -0.1180154963 7.25184427e-22)
(-0.2142141203 -0.1969165777 -3.873471828e-22)
(-0.2055923274 -0.2717157505 3.977696769e-22)
(-0.1789707726 -0.3257200878 4.405928655e-24)
(-0.1301736402 -0.3333656774 -4.476729813e-24)
(-0.06580414028 -0.2644006685 -2.3860261e-22)
(-0.006818005838 -0.1085808837 0)
(-0.001261755306 0.05961506143 -1.657486156e-23)
(-0.01449508733 0.1350783655 -1.17006261e-21)
(-0.02992787823 0.1783167286 9.458621574e-22)
(-0.0452923409 0.1992840319 5.916531954e-22)
(-0.05884837143 0.2061814946 5.236667273e-22)
(-0.07075124891 0.2040782374 5.698127102e-22)
(-0.08150498074 0.1954369834 -3.685622909e-23)
(-0.09176800088 0.1807759987 -2.905023208e-22)
(-0.1022026265 0.1593181746 1.799154591e-22)
(-0.1134067674 0.1295441105 0)
(-0.1258411406 0.08965417587 0)
(-0.1397072484 0.03798519491 2.282334471e-22)
(-0.1546930486 -0.02653690133 9.228899767e-23)
(-0.1696375583 -0.1037793752 -2.042091035e-22)
(-0.1818811567 -0.1912258915 -4.582529518e-23)
(-0.1864686982 -0.2816112596 1.495523339e-22)
(-0.1758391982 -0.3587923426 -2.53097412e-22)
(-0.1405905959 -0.3924033851 -8.568891574e-23)
(-0.08081290062 -0.3353578276 2.382763704e-22)
(-0.0103663973 -0.1506409243 -7.015690138e-22)
(-0.002626032842 0.06949343601 0)
(-0.01928073947 0.1510229779 1.908870578e-21)
(-0.03436884569 0.194265588 0)
(-0.04639564557 0.2125359897 -1.206266581e-21)
(-0.05396445288 0.2163327632 7.218885848e-23)
(-0.0580944207 0.2117180867 -5.308290968e-22)
(-0.05990764678 0.201550537 -4.138175677e-22)
(-0.06055440883 0.1864928968 7.070800553e-22)
(-0.06115231083 0.1658180801 -1.572370126e-22)
(-0.06281223223 0.1379948541 0)
(-0.06663814742 0.1010919914 0)
(-0.07366233586 0.05310214305 3.005511469e-23)
(-0.08465852287 -0.007775016281 -5.24113314e-22)
(-0.09988173586 -0.08282745299 -3.76407776e-22)
(-0.1182905178 -0.1719895822 4.281088984e-22)
(-0.1362598782 -0.2716224478 -5.517149978e-22)
(-0.1461486191 -0.36936657 5.159267849e-23)
(-0.133924265 -0.4347122646 1.023421144e-22)
(-0.09147593836 -0.4048838226 5.962281932e-22)
(-0.01532242909 -0.2030195047 7.002468233e-22)
(-0.005498817849 0.084014561 0)
(-0.02887501574 0.1691762227 1.550468921e-22)
(-0.04317463158 0.2081477502 -4.50616329e-23)
(-0.04987777215 0.2198404108 6.913503311e-22)
(-0.04858327354 0.217760428 -6.279482006e-22)
(-0.04188482344 0.2088143973 4.232114146e-23)
(-0.03180697397 0.1960176414 -9.975787967e-23)
(-0.02007285386 0.1800276051 -2.918542817e-22)
(-0.008209512625 0.1601390799 1.825366824e-22)
(0.002272195144 0.1348716869 0)
(0.00978157772 0.1023390395 0)
(0.01265091703 0.06047362976 -2.588326708e-22)
(0.009163679674 0.007150575091 0)
(-0.002348290418 -0.05984331465 -5.215064139e-22)
(-0.02287957029 -0.1424608899 2.588447773e-24)
(-0.05140821266 -0.2413748605 2.372567448e-23)
(-0.0829982018 -0.3510447026 1.755122563e-22)
(-0.101208739 -0.4476001888 6.239323738e-24)
(-0.09105562938 -0.4595642184 -6.12408368e-22)
(-0.02131984731 -0.2633768691 0)
(-0.01128278432 0.1085085133 0)
(-0.04542207356 0.1913346206 -8.194036573e-22)
(-0.0552283677 0.2185421422 -5.163074721e-22)
(-0.05145993157 0.2180096919 4.345656465e-22)
(-0.03600011015 0.2067425443 -2.034942552e-24)
(-0.01398133868 0.1917689631 -4.251154928e-23)
(0.01150903168 0.1756156367 5.152230677e-22)
(0.03826886005 0.1585557141 -2.476253178e-23)
(0.06455005918 0.1397295385 -1.826154615e-22)
(0.08868886758 0.1176869822 2.83343987e-23)
(0.1088963042 0.09068921639 -3.124235073e-23)
(0.1231525095 0.05684408323 -3.436898973e-23)
(0.1290914179 0.01412924943 3.0214648e-22)
(0.1241073358 -0.03986593423 5.80155391e-22)
(0.1053638869 -0.1080289942 -4.898384264e-22)
(0.0708504753 -0.194473919 -1.666006041e-22)
(0.02011131586 -0.301854354 1.42729635e-22)
(-0.03178484951 -0.4191782284 7.182324325e-23)
(-0.06919910754 -0.4816939669 1.888454277e-21)
(-0.02559217016 -0.3249799108 2.924854148e-21)
(-0.0199324142 0.1471324919 -4.234676994e-23)
(-0.06543081812 0.210874269 4.260904198e-23)
(-0.05487482152 0.2147029092 9.668652505e-22)
(-0.02737459158 0.1960620086 1.351984148e-24)
(0.01189269832 0.1741410697 0)
(0.05524466384 0.1537499644 4.10365551e-23)
(0.09935011095 0.1356049177 -2.09928977e-22)
(0.142293419 0.1190119871 -8.262974745e-23)
(0.1827251478 0.1027545864 3.336897156e-23)
(0.2193323951 0.08541569459 -1.528687269e-23)
(0.2505485751 0.06550282781 3.127932058e-23)
(0.2744140197 0.04148765893 -6.140670552e-23)
(0.2883230671 0.01174369751 -8.629408559e-23)
(0.2893145871 -0.0255862231 1.477140948e-22)
(0.2734272539 -0.07322141298 0)
(0.2365327694 -0.1364393086 1.57269838e-22)
(0.1729296855 -0.2241805646 2.457875126e-22)
(0.09018039182 -0.3428590937 0)
(-0.009915940632 -0.4532886618 -3.627172942e-21)
(-0.01971272637 -0.375986033 -2.863066675e-21)
(-0.02561812502 0.2287405026 -9.429538157e-22)
(-0.0393987521 0.2246439552 -1.362755212e-22)
(0.03625329135 0.1805969988 -2.257627523e-22)
(0.1066097295 0.1432552068 -1.140450472e-22)
(0.1763962348 0.114434697 -4.254897523e-23)
(0.2404850218 0.09311135378 9.4470774e-23)
(0.2984994337 0.07710161465 -1.32562114e-22)
(0.3506862525 0.06438284561 1.192770334e-22)
(0.3971853459 0.05336782478 -7.814746564e-23)
(0.4377166211 0.04277224719 1.283689987e-25)
(0.4714406976 0.03149613578 1.413174979e-23)
(0.4968773115 0.01855352217 7.451206873e-23)
(0.5118394169 0.003018916321 -1.72388071e-22)
(0.5136828249 -0.01613007308 -1.572937146e-22)
(0.4981079755 -0.0407470055 -4.261463127e-23)
(0.4607588137 -0.07490917097 0)
(0.3916956916 -0.1279293874 -1.725388861e-22)
(0.2891038711 -0.2207524748 8.003920989e-22)
(0.1181594699 -0.3523708609 1.609631185e-21)
(0.02631126711 -0.3773156997 2.161190432e-21)
(0.2145975497 0.1350470081 9.771650739e-22)
(0.2786423093 0.09912146638 0)
(0.4328641671 0.05831412479 -2.559801655e-22)
(0.531111755 0.03842253518 -1.732755583e-22)
(0.6010872557 0.02599778777 0)
(0.6548868563 0.01798974488 -5.840887337e-23)
(0.6976461596 0.01282416439 5.998890481e-23)
(0.7323780919 0.00934010558 -1.634046255e-23)
(0.7608698037 0.006770272125 2.620137039e-23)
(0.7839223176 0.004616506203 2.095623567e-23)
(0.8015659036 0.002533218339 0)
(0.8132759932 0.0002674466057 -2.668639669e-23)
(0.8179089476 -0.002333521197 0)
(0.8138739691 -0.005366200405 2.650223165e-23)
(0.7979811999 -0.009371776579 1.50875147e-23)
(0.767710984 -0.01491598685 -5.631590948e-23)
(0.7107986247 -0.02507228566 -2.459130948e-22)
(0.6236909209 -0.04217462577 -6.804083792e-22)
(0.4229996992 -0.09195905469 0)
(0.2705337554 -0.1524660621 -2.10829802e-21)
)
;

boundaryField
{
    movingWall
    {
        type            calculated;
        value           uniform (1 0 0);
    }
    fixedWalls
    {
        type            calculated;
        value           uniform (0 0 0);
    }
    frontAndBack
    {
        type            empty;
    }
}


// ************************************************************************* //
