/*--------------------------------*- C++ -*----------------------------------*\
  =========                 |
  \\      /  F ield         | OpenFOAM: The Open Source CFD Toolbox
   \\    /   O peration     | Website:  https://openfoam.org
    \\  /    A nd           | Version:  13
     \\/     M anipulation  |
\*---------------------------------------------------------------------------*/
FoamFile
{
    format      ascii;
    class       vectorField;
    location    "5";
    object      U_all;
}
// * * * * * * * * * * * * * * * * * * * * * * * * * * * * * * * * * * * * * //


400
(
(7.125630632e-05 -7.152615108e-05 0)
(-0.0003611287041 7.72863926e-05 0)
(-0.001480644604 0.0002345790292 0)
(-0.003104839076 0.0003400209108 0)
(-0.004956074863 0.000394948022 0)
(-0.006816963129 0.0004076639141 0)
(-0.008532508461 0.0003856104782 0)
(-0.009990355094 0.000334108152 0)
(-0.01110241582 0.0002562753646 0)
(-0.01179494458 0.0001547229329 0)
(-0.01200680365 3.351613046e-05 0)
(-0.01169428208 -0.0001001144365 0)
(-0.010841377 -0.0002346494719 0)
(-0.009473363964 -0.000353564606 0)
(-0.007672158625 -0.0004363670224 0)
(-0.00559139747 -0.000461270583 0)
(-0.003466377335 -0.0004109940361 0)
(-0.00160927337 -0.0002795630398 0)
(-0.0003619492846 -8.621403969e-05 0)
(7.956482637e-05 8.058963263e-05 0)
(-6.809441197e-05 0.0003619320557 0)
(-0.001661927438 0.001602946236 0)
(-0.004599359321 0.002738266634 0)
(-0.008565873501 0.003402561641 0)
(-0.01298091265 0.003617491422 0)
(-0.01738777743 0.003485779361 0)
(-0.02143745262 0.003098831449 0)
(-0.0248648381 0.002516829695 0)
(-0.02745896084 0.001775173939 0)
(-0.02904524913 0.0008990756278 0)
(-0.02948332197 -8.231117045e-05 0)
(-0.02867885164 -0.001124193853 0)
(-0.0266060916 -0.002158249385 0)
(-0.02333798529 -0.003086322642 0)
(-0.01907878167 -0.003780900137 0)
(-0.01419056481 -0.004093267696 0)
(-0.009201104748 -0.003877645587 0)
(-0.004771937282 -0.003042691292 0)
(-0.001601171149 -0.001664704885 0)
(-6.276223048e-05 -0.0003304374334 0)
(-0.0002323765476 0.001546957793 0)
(-0.003017057262 0.004618586744 0)
(-0.007633114307 0.007158862634 0)
(-0.01352350119 0.008620361016 0)
(-0.0199141807 0.009061285278 0)
(-0.02620732683 0.008685825603 0)
(-0.03194008868 0.00768747321 0)
(-0.03675567114 0.006204053413 0)
(-0.04037038728 0.004325836522 0)
(-0.04255305829 0.002123108539 0)
(-0.04312204044 -0.0003242512188 0)
(-0.0419586834 -0.002901182952 0)
(-0.03903449324 -0.005437893757 0)
(-0.03444827361 -0.007698996287 0)
(-0.02846730533 -0.009385853568 0)
(-0.02156232643 -0.01016105882 0)
(-0.01441863077 -0.009709280976 0)
(-0.007900876886 -0.007853148093 0)
(-0.002947282319 -0.00475253941 0)
(-0.0002269514884 -0.001474099236 0)
(-0.0003714571807 0.003405160534 0)
(-0.004151479102 0.009035446169 0)
(-0.01021865463 0.01328096515 0)
(-0.01772190145 0.01561575194 0)
(-0.02572123078 0.01621875491 0)
(-0.03351763734 0.01543856067 0)
(-0.04058056755 0.01359514459 0)
(-0.04650160953 0.01091968215 0)
(-0.05095416365 0.007568358918 0)
(-0.05366860161 0.003665199096 0)
(-0.05442768615 -0.0006507374778 0)
(-0.05308096534 -0.005183153926 0)
(-0.04957611839 -0.009645421378 0)
(-0.04400450338 -0.01364028574 0)
(-0.03665516976 -0.01666261896 0)
(-0.02806540116 -0.01814000542 0)
(-0.0190457025 -0.01753349541 0)
(-0.01065538419 -0.01452175845 0)
(-0.004079536405 -0.009285011107 0)
(-0.0003674279737 -0.003273110732 0)
(-0.0004870098159 0.005796942257 0)
(-0.005105455201 0.01461413042 0)
(-0.0124587129 0.02082982948 0)
(-0.02139813087 0.02409714204 0)
(-0.03082766507 0.02480452717 0)
(-0.03996109094 0.02349282975 0)
(-0.04822231128 0.02063189297 0)
(-0.05517362468 0.01655585098 0)
(-0.06046183712 0.01148880879 0)
(-0.06378534299 0.005606540399 0)
(-0.06488557969 -0.0008958130368 0)
(-0.06356151887 -0.007741222265 0)
(-0.05970581861 -0.01451941849 0)
(-0.0533624087 -0.02065098072 0)
(-0.04480176164 -0.02538490248 0)
(-0.03460006875 -0.02785295974 0)
(-0.02369397057 -0.02721493576 0)
(-0.01337850322 -0.02292390304 0)
(-0.005140113997 -0.01511278128 0)
(-0.0005053176154 -0.005612914698 0)
(-0.0005889620403 0.008648658682 0)
(-0.005992297902 0.02123509776 0)
(-0.01457186244 0.02968742944 0)
(-0.02490083643 0.03395465526 0)
(-0.0357262096 0.03472173123 0)
(-0.04618118896 0.03277751629 0)
(-0.05565708267 0.02876927974 0)
(-0.06370118769 0.02314181636 0)
(-0.06994385542 0.01618219479 0)
(-0.07405324795 0.008105464834 0)
(-0.0757194072 -0.0008529894582 0)
(-0.07466698063 -0.01034903615 0)
(-0.07069568442 -0.01985349123 0)
(-0.06375297764 -0.02858911239 0)
(-0.05404046822 -0.03551206001 0)
(-0.04213860218 -0.03937258291 0)
(-0.02911379788 -0.0389099018 0)
(-0.01655810444 -0.03322578694 0)
(-0.006357098126 -0.02232724749 0)
(-0.0006718452116 -0.008496220461 0)
(-0.0006876025267 0.01195679542 0)
(-0.006920869458 0.02888992934 0)
(-0.0167706947 0.03985941669 0)
(-0.02854942031 0.04520678512 0)
(-0.04083653017 0.04600314965 0)
(-0.05269047459 0.04334783519 0)
(-0.06348247636 0.03809693781 0)
(-0.07275909578 0.03081267894 0)
(-0.08014537589 0.02183460789 0)
(-0.08528306087 0.01139500589 0)
(-0.08780273187 -0.0002592804405 0)
(-0.08733164671 -0.01274638882 0)
(-0.08353482503 -0.02543763159 0)
(-0.07620211908 -0.03735191856 0)
(-0.06539484897 -0.04710126877 0)
(-0.05163528119 -0.05294066721 0)
(-0.0360996318 -0.05301334518 0)
(-0.02073983035 -0.04587321874 0)
(-0.007985989899 -0.03127800169 0)
(-0.0009043184897 -0.01205652659 0)
(-0.0007920907461 0.01577365792 0)
(-0.007978828303 0.03766296076 0)
(-0.01922374449 0.05144681649 0)
(-0.03258405273 0.0579560347 0)
(-0.04645173649 0.05875235889 0)
(-0.05981824369 0.05531830283 0)
(-0.07205176615 0.04875493064 0)
(-0.08271784853 0.03974847395 0)
(-0.09145415578 0.02867612042 0)
(-0.09788822668 0.01575672531 0)
(-0.1015928099 0.001206537969 0)
(-0.1020821698 -0.01460498589 0)
(-0.09884677521 -0.03099016055 0)
(-0.09144785763 -0.04678014333 0)
(-0.07970656628 -0.06020060076 0)
(-0.06397673501 -0.06887610458 0)
(-0.04546920338 -0.07010878053 0)
(-0.0265301041 -0.06159218086 0)
(-0.01032398368 -0.04259817682 0)
(-0.001249424087 -0.01656643802 0)
(-0.0009099699966 0.02019520115 0)
(-0.009237604669 0.04770652049 0)
(-0.02205581991 0.06461204521 0)
(-0.03716155467 0.07234484114 0)
(-0.05273023622 0.07309041792 0)
(-0.06769824648 0.06880311863 0)
(-0.08145544087 0.06087181694 0)
(-0.09361500876 0.05011457831 0)
(-0.1038561664 0.0369289879 0)
(-0.1118184369 0.02148308222 0)
(-0.1170374309 0.003906670024 0)
(-0.1189159267 -0.01551316861 0)
(-0.1167434399 -0.03610429188 0)
(-0.1097837299 -0.05656578572 0)
(-0.09749177102 -0.07472913171 0)
(-0.07987999398 -0.08745512513 0)
(-0.05802361982 -0.09088822773 0)
(-0.03461114666 -0.08137651626 0)
(-0.01374539695 -0.05724301345 0)
(-0.001766891127 -0.02246590301 0)
(-0.001048977074 0.02535722496 0)
(-0.0107663158 0.05922149893 0)
(-0.02536312571 0.07954505188 0)
(-0.04236635917 0.08850797244 0)
(-0.05969773199 0.08909662901 0)
(-0.07625797744 0.08384779033 0)
(-0.09149343563 0.07448962093 0)
(-0.105104578 0.06198293998 0)
(-0.1168549617 0.04672931221 0)
(-0.1264420868 0.02880635586 0)
(-0.1334087706 0.008192441462 0)
(-0.137081109 -0.01499781622 0)
(-0.1365564957 -0.04022179492 0)
(-0.1307558946 -0.06616413829 0)
(-0.1186374533 -0.09032728876 0)
(-0.09963852577 -0.1087269073 0)
(-0.07439380936 -0.1159939971 0)
(-0.04570280846 -0.1064263897 0)
(-0.0187346512 -0.07653529455 0)
(-0.002533851046 -0.03041638124 0)
(-0.001220954638 0.03144217466 0)
(-0.01265046496 0.07244609936 0)
(-0.02923205766 0.09642902112 0)
(-0.04821856774 0.1065166441 0)
(-0.06723610626 0.1067354284 0)
(-0.0851831109 0.1003422515 0)
(-0.1016109777 0.08946526948 0)
(-0.1163596211 0.07522364728 0)
(-0.1293344109 0.05801186446 0)
(-0.1403574274 0.03778281536 0)
(-0.1490552804 0.01429963246 0)
(-0.1547572248 -0.01260159289 0)
(-0.1564360221 -0.04265637245 0)
(-0.1526889764 -0.07473171115 0)
(-0.1418873332 -0.1061851309 0)
(-0.1226356874 -0.1322418174 0)
(-0.09467601322 -0.1457218157 0)
(-0.06039335229 -0.137962426 0)
(-0.0258900489 -0.1021762373 0)
(-0.00364822235 -0.04137853445 0)
(-0.001449402309 0.03870031869 0)
(-0.01501774434 0.08765236901 0)
(-0.03375779844 0.1153977794 0)
(-0.05466638183 0.1263017346 0)
(-0.0750384873 0.125755204 0)
(-0.09383163059 0.1179021836 0)
(-0.110772457 0.1053379194 0)
(-0.12590765 0.08935994203 0)
(-0.1393559564 0.07035439677 0)
(-0.1511494502 0.04812966116 0)
(-0.1611061397 0.02218289453 0)
(-0.168685704 -0.008030875151 0)
(-0.1728851152 -0.04269137438 0)
(-0.1721059449 -0.08112394884 0)
(-0.1641541286 -0.1208800061 0)
(-0.1466095861 -0.1566936788 0)
(-0.1177799531 -0.1795229579 0)
(-0.07873982644 -0.1767941553 0)
(-0.03585034211 -0.1361285741 0)
(-0.005230755609 -0.05670187021 0)
(-0.001784684595 0.04749355128 0)
(-0.01807799769 0.1051485822 0)
(-0.03905952298 0.1364683469 0)
(-0.06154337877 0.1475331575 0)
(-0.08249645608 0.1455371021 0)
(-0.1010562135 0.1357027507 0)
(-0.117234489 0.1211557365 0)
(-0.1313740172 0.1033906642 0)
(-0.1438901311 0.08279382731 0)
(-0.1551200082 0.05903072904 0)
(-0.1651975664 0.0313140755 0)
(-0.1738692851 -0.001347680174 0)
(-0.1803872979 -0.03976135073 0)
(-0.1832244786 -0.08399415045 0)
(-0.1798331237 -0.1322925117 0)
(-0.1667861253 -0.1795408905 0)
(-0.140496864 -0.2152971671 0)
(-0.0995341323 -0.222501045 0)
(-0.0490454831 -0.180193455 0)
(-0.007425554662 -0.07818995152 0)
(-0.002334319842 0.05837760993 0)
(-0.02218969241 0.1252787742 0)
(-0.04528002304 0.1594111588 0)
(-0.06844288479 0.1694095498 0)
(-0.08844310922 0.1648558208 0)
(-0.1048464546 0.1522443192 0)
(-0.1181360234 0.1352646001 0)
(-0.1290736939 0.1156069114 0)
(-0.1384588813 0.09366360909 0)
(-0.147012087 0.06897575954 0)
(-0.1552820267 0.04049607269 0)
(-0.1634798728 0.006798266151 0)
(-0.1713545347 -0.03370895439 0)
(-0.1778090934 -0.08203301456 0)
(-0.1804330093 -0.1377108107 0)
(-0.1751747694 -0.1967741258 0)
(-0.1564633734 -0.2486139756 0)
(-0.1191954496 -0.2721636929 0)
(-0.06508528137 -0.2349934372 0)
(-0.01038825642 -0.1080368325 0)
(-0.003314787515 0.07224702203 0)
(-0.02796190562 0.1483899812 0)
(-0.05251359513 0.1834687741 0)
(-0.07437148321 0.1902615105 0)
(-0.09056045586 0.1814834999 0)
(-0.1015875928 0.1650233889 0)
(-0.1087230386 0.1450756198 0)
(-0.1133068489 0.1234565198 0)
(-0.1165880273 0.1005327931 0)
(-0.1196869027 0.07573059964 0)
(-0.1235690662 0.04779645455 0)
(-0.1290363552 0.01493894125 0)
(-0.1364933467 -0.02507081454 0)
(-0.1456173159 -0.07437551651 0)
(-0.1548767266 -0.1342661947 0)
(-0.1604486175 -0.2031162019 0)
(-0.1554070279 -0.2722391957 0)
(-0.1304373995 -0.3188679059 0)
(-0.08150071988 -0.2980684536 0)
(-0.01418966566 -0.1483871489 0)
(-0.005092840519 0.09067255735 0)
(-0.03629953084 0.1747475869 0)
(-0.06040642866 0.2067462614 0)
(-0.07672173553 0.2067999058 0)
(-0.08391382608 0.191553949 0)
(-0.0844388628 0.1701209256 0)
(-0.0808027985 0.1468933908 0)
(-0.07504308023 0.1235728123 0)
(-0.06881590226 0.1003759814 0)
(-0.06352252166 0.07657478963 0)
(-0.06040962606 0.05078426895 0)
(-0.06067164892 0.02103094203 0)
(-0.0654334246 -0.01524299668 0)
(-0.0754355286 -0.0611522639 0)
(-0.09064430825 -0.1198232435 0)
(-0.1087683498 -0.1929961559 0)
(-0.1231657754 -0.2765647681 0)
(-0.1211355514 -0.3506872314 0)
(-0.09159588069 -0.3612407699 0)
(-0.01836600833 -0.2001802919 0)
(-0.008177380379 0.1169961324 0)
(-0.04788412724 0.2040200691 0)
(-0.06618270701 0.2244293073 0)
(-0.06782792059 0.2124186877 0)
(-0.05698850943 0.1884821216 0)
(-0.03958480237 0.161756787 0)
(-0.01955778892 0.1359719928 0)
(0.0006092753731 0.1121711137 0)
(0.0192094286 0.09012407177 0)
(0.03492793949 0.06890789061 0)
(0.04662724008 0.04711283714 0)
(0.05305325724 0.02284487638 0)
(0.05265627513 -0.006400376537 0)
(0.0437609883 -0.04399285596 0)
(0.02454471104 -0.09433432655 0)
(-0.00553607403 -0.1625674886 0)
(-0.04276676557 -0.2516013235 0)
(-0.07398328599 -0.351189527 0)
(-0.08190073364 -0.4082906048 0)
(-0.02053014623 -0.2612025775 0)
(-0.01426595607 0.1600514042 0)
(-0.05945930405 0.2337570972 0)
(-0.05459755209 0.2255621868 0)
(-0.02267860456 0.1955492434 0)
(0.01918797011 0.1630370315 0)
(0.06223034086 0.1334963749 0)
(0.1026758613 0.1081429919 0)
(0.1387817517 0.08671110284 0)
(0.1697455064 0.06830701601 0)
(0.1950565869 0.0518082618 0)
(0.2141678186 0.03591176528 0)
(0.2262066152 0.01907103176 0)
(0.2297256454 -0.000648486832 0)
(0.2225700538 -0.02595972542 0)
(0.2015298932 -0.06106363093 0)
(0.1627757029 -0.1127984339 0)
(0.104054377 -0.1913063095 0)
(0.03315206578 -0.3028029459 0)
(-0.03183027965 -0.4139566503 0)
(-0.01305839577 -0.3217410552 0)
(-0.01946765262 0.2146940941 0)
(-0.03410649287 0.2398896871 0)
(0.04597361751 0.1811302746 0)
(0.1343514573 0.1378351564 0)
(0.2126041423 0.1051491888 0)
(0.2788151617 0.08007062739 0)
(0.3337171911 0.06100320416 0)
(0.3785577197 0.04645654873 0)
(0.414505703 0.03507356017 0)
(0.4424335458 0.02570411438 0)
(0.4627532306 0.01733606516 0)
(0.4752535026 0.008985673683 0)
(0.4789583552 -0.0004157926021 0)
(0.4718546024 -0.01230940649 0)
(0.4503205478 -0.02925020677 0)
(0.4085626948 -0.05642326557 0)
(0.3375122842 -0.1064015662 0)
(0.2306729561 -0.2023639999 0)
(0.08697667213 -0.3439178891 0)
(0.03586494682 -0.3231376004 0)
(0.2449074764 0.1103845404 0)
(0.3208323395 0.1002952843 0)
(0.4560808119 0.06115714997 0)
(0.5602608023 0.03939033096 0)
(0.6319373762 0.02697162103 0)
(0.6832319154 0.0190930071 0)
(0.7208640022 0.01390835037 0)
(0.7487489209 0.01040706733 0)
(0.7694362046 0.007953556512 0)
(0.7845620214 0.006136708817 0)
(0.7950624431 0.004675642358 0)
(0.8012829886 0.003358031966 0)
(0.802991973 0.002010716032 0)
(0.799208535 0.0004436887848 0)
(0.7877439149 -0.001714214691 0)
(0.7645132499 -0.004959272044 0)
(0.7190720561 -0.01165033043 0)
(0.6345384496 -0.0258833714 0)
(0.4640213312 -0.07371104455 0)
(0.3042555317 -0.1210043471 0)
)


// ************************************************************************* //
