/*--------------------------------*- C++ -*----------------------------------*\
  =========                 |
  \\      /  F ield         | OpenFOAM: The Open Source CFD Toolbox
   \\    /   O peration     | Website:  https://openfoam.org
    \\  /    A nd           | Version:  13
     \\/     M anipulation  |
\*---------------------------------------------------------------------------*/
FoamFile
{
    format      ascii;
    class       vectorField;
    location    "5";
    object      U_all;
}
// * * * * * * * * * * * * * * * * * * * * * * * * * * * * * * * * * * * * * //


400
(
(-1.395020787e-05 3.818852551e-06 0)
(-0.0006308053857 0.0003841816809 -1.146135988e-23)
(-0.001910990708 0.0007950356116 0)
(-0.003458029234 0.001108820952 0)
(-0.005045627285 0.001284269806 2.335174117e-25)
(-0.006526646671 0.001308649874 3.671465814e-24)
(-0.007799592714 0.001187851301 9.190395416e-24)
(-0.008789739634 0.0009401784197 2.557240572e-23)
(-0.009436923132 0.0005939573585 -3.727726428e-25)
(-0.009692439657 0.0001863993166 -6.601965166e-24)
(-0.009522320668 -0.000237594572 8.888091608e-24)
(-0.008915097577 -0.0006277397689 -8.648621532e-23)
(-0.007892119059 -0.0009327190051 -9.749440827e-23)
(-0.006517612632 -0.00110726745 -1.143040178e-22)
(-0.004905611565 -0.001121305138 7.183962886e-24)
(-0.003220518823 -0.0009698486371 -7.203264909e-24)
(-0.001667396662 -0.0006810970191 -4.300502252e-22)
(-0.0004748345879 -0.0003169750517 0)
(0.0002033602226 1.450558215e-05 1.292768276e-24)
(0.0001464801949 0.0001934623251 -1.528517707e-22)
(-0.0002228239818 0.0007707714745 1.024889816e-25)
(-0.002254397708 0.002868687447 1.155038024e-23)
(-0.005673295702 0.004634885668 9.872386939e-26)
(-0.009752500361 0.005740303344 -3.130840031e-25)
(-0.0139385104 0.006170083896 2.768583168e-25)
(-0.01786716747 0.005972547946 -1.252045366e-24)
(-0.02126758693 0.005220945911 1.609921829e-23)
(-0.02393471851 0.004002542285 -2.489552271e-23)
(-0.0257060178 0.002421257623 2.005889293e-23)
(-0.02645440721 0.0006041779607 7.508791473e-24)
(-0.02609496704 -0.001293742769 -9.68734317e-24)
(-0.02460195945 -0.003090464088 1.281440099e-24)
(-0.02203231058 -0.00458646467 5.410547716e-23)
(-0.01854861977 -0.005585752963 -3.299234756e-24)
(-0.01443416475 -0.005927541023 6.677754203e-24)
(-0.01009139542 -0.005526232004 -2.129875587e-22)
(-0.006013105034 -0.004413558465 2.18741168e-22)
(-0.002724448874 -0.002777028866 -2.644349691e-24)
(-0.0005923241013 -0.0009990262502 2.711018891e-24)
(-5.552505959e-07 0.0002507431953 0)
(-0.0003249998653 0.002478025758 -1.963065057e-25)
(-0.003699984201 0.007197431803 7.767111307e-24)
(-0.009029320139 0.01069244658 -8.524854654e-24)
(-0.0153343358 0.01269438467 -2.594989713e-26)
(-0.02180824039 0.01329130326 2.549202678e-26)
(-0.0279243846 0.01264317397 4.004979159e-25)
(-0.03327401014 0.01092392688 -1.541600245e-23)
(-0.03753759601 0.008309849354 -1.447540604e-24)
(-0.04045634751 0.004993094154 -2.10170562e-23)
(-0.04182369037 0.001202460248 0)
(-0.04149526721 -0.002779198499 0)
(-0.03941400059 -0.006609117435 4.290405691e-23)
(-0.03564549019 -0.009895651984 4.560484314e-23)
(-0.0304137222 -0.0122333584 -3.106261539e-24)
(-0.02412570069 -0.01326212298 1.026950098e-22)
(-0.01737149263 -0.01274909873 2.063989695e-22)
(-0.01088222933 -0.01068363961 1.748842203e-22)
(-0.005435871052 -0.007370944271 4.999314991e-24)
(-0.001637302636 -0.003507905309 -2.328471518e-24)
(-0.0001105353468 -0.0003182561282 0)
(-0.0003714017547 0.004916726921 -2.035662785e-23)
(-0.004966015273 0.01310550506 -7.585894336e-24)
(-0.01208295673 0.0187449365 8.394822454e-24)
(-0.02048604336 0.02180166008 0)
(-0.0291405952 0.0225516143 0)
(-0.03738653128 0.02131205792 0)
(-0.04470274344 0.01838051783 -5.857338378e-25)
(-0.05067031124 0.01403122781 9.488392992e-24)
(-0.05493563737 0.008546516173 0)
(-0.05719924956 0.002259215692 5.609164355e-24)
(-0.05722918538 -0.004409490981 5.515132984e-25)
(-0.0548948912 -0.01093070536 -5.53057963e-25)
(-0.05021824343 -0.01667362804 0)
(-0.04342982195 -0.02095368725 9.32059023e-23)
(-0.03501455241 -0.02312410124 -9.960051573e-23)
(-0.02572845054 -0.02271503833 -9.592693834e-23)
(-0.01655824903 -0.01960618123 -1.770794939e-22)
(-0.008600522512 -0.01420064526 5.802332081e-25)
(-0.002825141811 -0.007547571874 -8.402242576e-23)
(-0.0002066793943 -0.001463575993 0)
(-0.0003852313832 0.008034078993 2.047097129e-23)
(-0.006129728099 0.02049968597 5.519317265e-25)
(-0.01496668665 0.0287144536 -5.39325827e-25)
(-0.02542008003 0.03302018297 0)
(-0.03625327612 0.03396989534 4.250358309e-25)
(-0.0466953047 0.03208252949 -4.191411473e-25)
(-0.05613487362 0.02779266461 1.335518996e-23)
(-0.06406649605 0.02146649581 -8.16895141e-24)
(-0.07003901828 0.01346034156 -3.409630864e-24)
(-0.07363785882 0.004194088698 -5.615696243e-24)
(-0.07450061709 -0.005780295353 0)
(-0.07236015772 -0.01573488974 1.178503633e-24)
(-0.06711725058 -0.02475467492 3.941363719e-23)
(-0.05893014816 -0.03179233157 -9.888971384e-23)
(-0.04829978076 -0.03579281334 5.821997124e-24)
(-0.03612922907 -0.03590579058 1.830062613e-22)
(-0.0237100984 -0.0317705992 -2.710597892e-24)
(-0.01258471067 -0.02381724573 0)
(-0.004277906824 -0.01347019345 3.513016335e-23)
(-0.0002973363916 -0.003260502491 -3.281604273e-23)
(-0.0003866810608 0.0117990028 9.924839902e-23)
(-0.00723467905 0.02933542769 -5.352913172e-25)
(-0.0177395777 0.04058637738 0)
(-0.03022185533 0.0463883751 0)
(-0.043271647 0.04766069854 -6.619973275e-23)
(-0.05603413987 0.04516772417 -5.708728164e-23)
(-0.06783271472 0.03948769426 -1.478874324e-23)
(-0.078090689 0.03105837536 -1.21777877e-25)
(-0.08625817662 0.02027300933 3.23778447e-24)
(-0.09178189398 0.007596224261 -5.001493781e-25)
(-0.0941196238 -0.006323200638 -2.245470998e-24)
(-0.09279017093 -0.02056748502 -8.639336699e-24)
(-0.08747260787 -0.03390209254 -9.849916016e-24)
(-0.07814251339 -0.04482154297 -7.345150112e-23)
(-0.06521880429 -0.05169705842 0)
(-0.04970301258 -0.05307413868 -9.269427058e-23)
(-0.03323530698 -0.04811716051 2.596353007e-24)
(-0.0179671592 -0.03712297128 0)
(-0.006256043999 -0.02189862053 5.100828952e-23)
(-0.0004127114097 -0.005924862778 1.291414546e-22)
(-0.0003840214297 0.01618540484 -9.853196574e-23)
(-0.008280237276 0.03956251406 2.465578736e-22)
(-0.02037868477 0.05432035715 1.296730228e-22)
(-0.03483893837 0.06191142768 2.871752582e-24)
(-0.05011200395 0.06370899486 -5.71558935e-23)
(-0.06529406586 0.06076538396 6.044602733e-23)
(-0.07967562162 0.05380298872 -2.3249351e-24)
(-0.092633135 0.04329714827 -7.830382218e-25)
(-0.1035273143 0.02961921443 1.041834596e-24)
(-0.111653417 0.01320665392 2.385426431e-25)
(-0.1162482975 -0.005264545918 1.908278989e-24)
(-0.1165396626 -0.02472461979 9.472678729e-24)
(-0.1118718177 -0.04362056811 -2.229732693e-23)
(-0.1018957653 -0.05990058863 9.893760238e-23)
(-0.08679511757 -0.07116485446 -2.23811339e-24)
(-0.06754990542 -0.07504042856 0)
(-0.04613054487 -0.06983177656 0)
(-0.02545403943 -0.05537730256 6.358210665e-25)
(-0.009089906145 -0.03379038743 -6.49891523e-25)
(-0.0005863510624 -0.009821159796 7.265215636e-23)
(-0.0003777554911 0.0211519624 0)
(-0.009227999911 0.05108722227 1.622004264e-22)
(-0.02278169777 0.06980726164 7.233129637e-23)
(-0.03907864212 0.07950481951 0)
(-0.05646917673 0.08209627109 1.205567337e-22)
(-0.07404108245 0.07896598216 0)
(-0.09109318722 0.07097901192 -9.681005171e-23)
(-0.1069931031 0.05860601181 4.099201577e-24)
(-0.1210417069 0.04212112573 0)
(-0.132396949 0.02183670065 0)
(-0.1400554571 -0.001650135 -4.497050133e-25)
(-0.1429108636 -0.02721504085 2.705880231e-26)
(-0.139880914 -0.05303184561 2.26313393e-23)
(-0.1301281555 -0.07646450669 -3.200067934e-23)
(-0.1133900711 -0.09415675097 1.147316313e-24)
(-0.09039497348 -0.102435724 -2.041929341e-24)
(-0.06328440771 -0.09817604775 2.074116726e-24)
(-0.0357987246 -0.08015252617 0)
(-0.01317159633 -0.05047743774 9.868690103e-25)
(-0.0008548132861 -0.01551282731 -4.16058857e-22)
(-0.0003673368414 0.02662727442 0)
(-0.01002241328 0.06374174714 -9.92198497e-23)
(-0.02479500538 0.08682406463 -5.141848894e-22)
(-0.0426397186 0.09892746712 -3.038482784e-22)
(-0.06184285172 0.1026057234 0)
(-0.08152549983 0.09962618602 3.066590298e-22)
(-0.1010423291 0.09100087703 8.541277983e-23)
(-0.1198046504 0.07715597007 -3.520590299e-24)
(-0.1371090928 0.05818937012 3.503167922e-24)
(-0.1520303842 0.03417622619 0)
(-0.1633728824 0.005497757414 1.695538702e-23)
(-0.1697059671 -0.0268257224 2.045033449e-24)
(-0.1694808842 -0.06081163129 -3.226062974e-23)
(-0.1612523087 -0.09330865851 9.312935261e-24)
(-0.1440682986 -0.1199108428 -6.489328591e-23)
(-0.1180512853 -0.1352792672 0)
(-0.08512900768 -0.1341248361 0)
(-0.04966593829 -0.1131472128 0)
(-0.01895147755 -0.07365235973 0)
(-0.001268884341 -0.02379927425 2.456945755e-22)
(-0.0003572020425 0.03250933376 0)
(-0.0106239407 0.07727521099 -2.9175262e-22)
(-0.02627064572 0.1050047964 7.403635409e-22)
(-0.04518714339 0.1197232486 2.925447152e-22)
(-0.06562260098 0.1247265895 0)
(-0.08676969058 0.1222294571 -2.879966231e-22)
(-0.1080881661 0.1134107565 -2.283645061e-23)
(-0.1290971311 0.0986298797 2.369417239e-22)
(-0.1491721373 0.07774599846 1.220235525e-22)
(-0.1674088314 0.05049321312 -2.736528428e-23)
(-0.1825424825 0.01688818017 1.299789456e-23)
(-0.1929246273 -0.0223418738 -4.702739275e-24)
(-0.1966172508 -0.06527173874 2.057961964e-22)
(-0.1915519636 -0.1084706043 0)
(-0.1758867755 -0.1465860598 6.492458494e-23)
(-0.1487103802 -0.1724189588 3.842804506e-25)
(-0.1110890252 -0.1777586921 -3.900392301e-25)
(-0.06736243427 -0.1557658916 -1.759847594e-23)
(-0.02690816155 -0.1052508642 -3.786752376e-25)
(-0.001907564718 -0.03575627571 0)
(-0.0003649974546 0.03869055361 0)
(-0.01106043618 0.09137923448 0)
(-0.02715639671 0.1238430255 -4.167710424e-22)
(-0.04647680026 0.1411889314 -1.550661624e-23)
(-0.06724535344 0.1475817773 1.596720913e-23)
(-0.08876165569 0.1457678125 -1.5778661e-23)
(-0.1106385448 0.1371372323 -1.703107774e-23)
(-0.1325724993 0.1219935695 -2.14631858e-22)
(-0.1541215266 0.09993632882 5.608356021e-23)
(-0.1745508631 0.07029813141 3.031598748e-23)
(-0.1927222101 0.03261783417 -3.000826022e-23)
(-0.2069774962 -0.01285357359 0)
(-0.2152373762 -0.06464914958 -2.638134279e-23)
(-0.2149807019 -0.1193485513 0)
(-0.2034219908 -0.1710834539 -2.341752147e-22)
(-0.1782561574 -0.2109878165 2.812897463e-22)
(-0.1388685517 -0.2274510541 0)
(-0.08836562383 -0.2083747579 1.795534041e-23)
(-0.03744562779 -0.1471333981 1.600108068e-23)
(-0.002898050408 -0.05276203671 -1.619185865e-22)
(-0.0004355305633 0.04512118436 0)
(-0.01150237946 0.1057622625 7.796274628e-22)
(-0.02761890094 0.1427382996 -2.054047984e-23)
(-0.0465238886 0.1623845555 7.714359758e-22)
(-0.06641596121 0.1699059207 -2.063767186e-23)
(-0.08674791292 0.1686891952 2.223311631e-23)
(-0.1073370511 0.1604062398 -2.2030145e-23)
(-0.1281263521 0.145355606 -1.250615675e-23)
(-0.1489616502 0.1229138383 -3.957783919e-22)
(-0.1694354884 0.09202129454 -6.632903741e-24)
(-0.1887591709 0.05168667405 7.125389937e-24)
(-0.2056828942 0.001518027293 2.554180806e-22)
(-0.218264462 -0.05772181269 -4.293606757e-22)
(-0.2238326247 -0.1232175484 0)
(-0.2190249862 -0.1893037152 6.144824177e-22)
(-0.2000326388 -0.2461942369 -2.65493187e-22)
(-0.1638323695 -0.2790939493 -8.354050092e-24)
(-0.1106691502 -0.2692475922 0)
(-0.05064614003 -0.2004353234 -1.425657333e-23)
(-0.004440189963 -0.07646582166 1.598989228e-22)
(-0.0006669794252 0.05193108916 1.319681262e-23)
(-0.01237023784 0.120284279 -7.441108678e-22)
(-0.02818993761 0.1610910628 -9.998999273e-22)
(-0.0457824798 0.1821939096 -7.241615801e-22)
(-0.06333502016 0.1900951474 0)
(-0.08054791846 0.1889545131 2.845559756e-23)
(-0.09751737821 0.1808092868 -5.858188517e-23)
(-0.1145039609 0.1660328765 4.658813991e-23)
(-0.1317326623 0.1438701077 2.321429298e-22)
(-0.1492657659 0.1129592063 -8.862518356e-24)
(-0.1668866145 0.0718279295 0)
(-0.1839661598 0.01939056139 -2.767960587e-22)
(-0.1992148634 -0.04444974559 6.004325132e-22)
(-0.2104342949 -0.1180998888 7.257813424e-22)
(-0.2141801609 -0.1970170813 -3.878961579e-22)
(-0.2055717179 -0.2718286237 3.982302533e-22)
(-0.178964164 -0.3258399328 4.429780754e-24)
(-0.1301774044 -0.3334816293 -4.50095877e-24)
(-0.06581084751 -0.2644916798 -2.380546635e-22)
(-0.006819393624 -0.1086185648 0)
(-0.001260394421 0.05963604263 -1.658260471e-23)
(-0.0144846521 0.1351336618 -1.170533297e-21)
(-0.02990562599 0.1783975456 9.463048496e-22)
(-0.04525799633 0.1993810452 5.918946898e-22)
(-0.05880250561 0.2062852131 5.238977436e-22)
(-0.07069450651 0.2041793141 5.701008705e-22)
(-0.08143801256 0.1955265354 -3.688150757e-23)
(-0.09169157841 0.180846178 -2.90685078e-22)
(-0.1021178079 0.1593630578 1.800353413e-22)
(-0.1133151981 0.1295606474 0)
(-0.1257450694 0.08964235247 0)
(-0.1396098546 0.03794807813 2.283667007e-22)
(-0.1545984016 -0.02659393405 9.225973112e-23)
(-0.1695501021 -0.1038509699 -2.045023336e-22)
(-0.1818062829 -0.1913077873 -4.585738952e-23)
(-0.1864116847 -0.2817018759 1.494701834e-22)
(-0.1758034334 -0.3588904507 -2.534179666e-22)
(-0.1405752645 -0.3925040537 -8.544780296e-23)
(-0.08081172333 -0.3354442605 2.377291565e-22)
(-0.01036728527 -0.150681197 -7.012766258e-22)
(-0.002624592849 0.06950765251 0)
(-0.01926755204 0.1510648356 1.909576856e-21)
(-0.03433957918 0.1943303312 0)
(-0.0463490602 0.2126162553 -1.206684223e-21)
(-0.0539008493 0.2164199898 7.214366972e-23)
(-0.05801479174 0.2118034894 -5.310986487e-22)
(-0.0598135841 0.2016257863 -4.140045156e-22)
(-0.06044806011 0.1865507543 7.074759846e-22)
(-0.06103624156 0.1658532826 -1.57343761e-22)
(-0.06268973957 0.1380052781 0)
(-0.06651273869 0.1010778715 0)
(-0.07353760456 0.05306750699 3.00355791e-23)
(-0.08453824752 -0.007824101339 -5.243947021e-22)
(-0.09976952513 -0.08288639684 -3.766166487e-22)
(-0.1181912326 -0.1720524451 4.282379713e-22)
(-0.1361789357 -0.2716883829 -5.520847876e-22)
(-0.1460908954 -0.3694370153 5.176796119e-23)
(-0.1338917687 -0.4347882115 1.020910988e-22)
(-0.09146563595 -0.404955328 5.961685964e-22)
(-0.01532240968 -0.2030577548 6.999549685e-22)
(-0.005497580583 0.08402102463 0)
(-0.02886134315 0.1692021816 1.550104523e-22)
(-0.04314299164 0.2081928448 -4.507276994e-23)
(-0.0498259837 0.2198997961 6.91553096e-22)
(-0.04851125897 0.2178271228 -6.281495096e-22)
(-0.04179380606 0.2088808091 4.233549285e-23)
(-0.03169938817 0.196076564 -9.975042861e-23)
(-0.01995210875 0.1800726496 -2.920042019e-22)
(-0.008079204672 0.1601656836 1.826106636e-22)
(0.002407041679 0.1348777053 0)
(0.009916443663 0.1023251419 0)
(0.01278282401 0.06044331352 -2.589466585e-22)
(0.00928715667 0.007109379866 0)
(-0.002234798948 -0.05988976512 -5.216013692e-22)
(-0.02277727113 -0.142507327 2.507180588e-24)
(-0.05132202846 -0.2414191864 2.372991654e-23)
(-0.08293278833 -0.3510886308 1.756461191e-22)
(-0.1011670943 -0.4476487718 6.23742502e-24)
(-0.0910380604 -0.4596139886 -6.123386059e-22)
(-0.02131865371 -0.2634080311 0)
(-0.01128218879 0.1085079517 0)
(-0.04541140909 0.1913452955 -8.195860126e-22)
(-0.05520153325 0.218567375 -5.163588101e-22)
(-0.05141381694 0.2180473571 4.345945939e-22)
(-0.03593389482 0.2067877035 -2.034254145e-24)
(-0.01389578186 0.1918157367 -4.251764199e-23)
(0.01161139296 0.1756581899 5.153606385e-22)
(0.03838419839 0.1585888922 -2.477093322e-23)
(0.06467399227 0.1397495064 -1.826920878e-22)
(0.08881614 0.117691293 2.834401808e-23)
(0.1090218594 0.09067858922 -3.125215404e-23)
(0.1232724403 0.05682073887 -3.437749127e-23)
(0.1292018546 0.01409693891 3.022045752e-22)
(0.1242064779 -0.03990049137 5.802550557e-22)
(0.1054512256 -0.1080620594 -4.898909911e-22)
(0.07092486542 -0.1945023151 -1.665374266e-22)
(0.0201689672 -0.301878732 1.428216799e-22)
(-0.03174531293 -0.4192023771 7.183357834e-23)
(-0.06917908094 -0.4817210421 1.888654404e-21)
(-0.02558993045 -0.3250002359 2.925088048e-21)
(-0.01993292664 0.1471279495 -4.235036396e-23)
(-0.06542687351 0.2108744047 4.261260834e-23)
(-0.05486064415 0.2147122697 9.669143577e-22)
(-0.02734608693 0.1960809671 1.314138234e-24)
(0.01193766784 0.1741666884 0)
(0.05530659387 0.1537783393 4.103985189e-23)
(0.09942763614 0.1356318631 -2.099636924e-22)
(0.1423835971 0.1190338481 -8.264571343e-23)
(0.1828239461 0.1027684365 3.337745982e-23)
(0.2194349356 0.08541965972 -1.529260846e-23)
(0.2506498068 0.06549684965 3.12891351e-23)
(0.2745096347 0.04147308941 -6.142036089e-23)
(0.2884092152 0.01172293053 -8.631961403e-23)
(0.2893892331 -0.02560877848 1.477158233e-22)
(0.273490112 -0.07324243026 0)
(0.236584224 -0.1364559182 1.571933643e-22)
(0.1729698848 -0.22419251 2.458419871e-22)
(0.09020929292 -0.3428673034 0)
(-0.009900279117 -0.4532985606 -3.62753995e-21)
(-0.01971037237 -0.3759948531 -2.863294947e-21)
(-0.02561922837 0.2287364068 -9.429700564e-22)
(-0.03940171203 0.2246401538 -1.362784596e-22)
(0.03625274692 0.1805975518 -2.257717042e-22)
(0.1066166307 0.143261053 -1.140545735e-22)
(0.1764136296 0.114444763 -4.254490122e-23)
(0.2405149911 0.09312371443 9.446344628e-23)
(0.2985421965 0.07711405091 -1.32566094e-22)
(0.3507402878 0.06439330109 1.192967624e-22)
(0.3972477357 0.05337463565 -7.816767348e-23)
(0.4377834031 0.04277432709 1.282453809e-25)
(0.4715074093 0.03149330511 1.413507297e-23)
(0.4969396434 0.01854645454 7.452828539e-23)
(0.5118942083 0.003008954186 -1.724098425e-22)
(0.5137280339 -0.01614086163 -1.572977849e-22)
(0.4981428345 -0.04075672567 -4.26034126e-23)
(0.4607843728 -0.07491612765 0)
(0.391713831 -0.1279329692 -1.726229204e-22)
(0.2891166176 -0.2207533263 8.004897093e-22)
(0.118167408 -0.3523717271 1.609782372e-21)
(0.02631321672 -0.3773169606 2.161268173e-21)
(0.2145964691 0.1350459508 9.771831949e-22)
(0.2786383748 0.0991197993 0)
(0.4328589717 0.05831321403 -2.55975058e-22)
(0.5311081336 0.03842251086 -1.732589387e-22)
(0.6010878466 0.02599856156 0)
(0.6548935087 0.0179909931 -5.8402467e-23)
(0.6976594856 0.01282548567 5.998988968e-23)
(0.7323974803 0.009341122722 -1.634358189e-23)
(0.7608936373 0.006770693771 2.620672536e-23)
(0.7839482785 0.004616160769 2.096184965e-23)
(0.8015913509 0.002532130353 0)
(0.8132985427 0.0002657917678 -2.669222655e-23)
(0.8179266932 -0.002335206638 0)
(0.8138858497 -0.005367818643 2.650062176e-23)
(0.7979876038 -0.009373014414 1.507840169e-23)
(0.7677131987 -0.01491655969 -5.632923378e-23)
(0.7107985307 -0.0250722 -2.4596547e-22)
(0.6236904213 -0.04217410254 -6.804846065e-22)
(0.4229998635 -0.09195847094 0)
(0.2705339396 -0.1524657694 -2.108373348e-21)
)


// ************************************************************************* //
