/*--------------------------------*- C++ -*----------------------------------*\
  =========                 |
  \\      /  F ield         | OpenFOAM: The Open Source CFD Toolbox
   \\    /   O peration     | Website:  https://openfoam.org
    \\  /    A nd           | Version:  13
     \\/     M anipulation  |
\*---------------------------------------------------------------------------*/
FoamFile
{
    format      ascii;
    class       scalarField;
    location    "16.92";
    object      p_all;
}
// * * * * * * * * * * * * * * * * * * * * * * * * * * * * * * * * * * * * * //


400
(
1.019670782e-07
-0.000547341453
-0.0008891460145
-0.001016189382
-0.0009369000082
-0.0006837109344
-0.00029418378
0.000195743847
0.0007495980243
0.001326941601
0.001882174613
0.002362522033
0.00271265195
0.002879513855
0.002821582086
0.00252080836
0.001997510798
0.001308735444
0.0006509464172
5.582669312e-05
0.0005857759357
5.170021299e-06
-0.0003580021173
-0.00049973707
-0.0004684933732
-0.0002908584332
3.791740433e-06
0.0003861698666
0.0008248758343
0.00128269645
0.00171984197
0.002085200757
0.00232843734
0.002402226434
0.002272699931
0.001931028173
0.001403827348
0.0007559937197
0.0001594442194
-0.0005025721683
0.0009480266248
0.0003047817924
-9.554903766e-05
-0.000241146959
-0.0002342912381
-0.0001049857063
0.0001227117602
0.0004274668448
0.0007855341424
0.001165062486
0.00153380607
0.001838163154
0.002028118215
0.002054979425
0.001883618991
0.001504172405
0.0009405054135
0.0002490297294
-0.0004483510199
-0.001284308792
0.0009705156634
0.0002537926872
-0.0001953167486
-0.0003467182373
-0.0003550201519
-0.0002569442822
-7.316879549e-05
0.0001836429938
0.0004998721588
0.0008551336279
0.001208650891
0.001517172548
0.001720078594
0.00175692005
0.001578866893
0.001162513809
0.0005195960827
-0.000303268972
-0.001217240699
-0.00236639612
0.0004748092636
-0.000289166823
-0.0007668407514
-0.0009174767932
-0.000937238352
-0.000867330221
-0.0007228060781
-0.0005042328472
-0.000211445684
0.0001461963862
0.0005382973621
0.0009165975116
0.001209991255
0.001337710286
0.001223439534
0.0008140253348
9.538668896e-05
-0.0009004966775
-0.002108815368
-0.003635292434
-0.0006906616908
-0.001470023377
-0.00195781197
-0.002107608028
-0.002148740518
-0.002123387589
-0.002036802851
-0.001871973935
-0.001607852088
-0.001234166978
-0.000766494658
-0.0002493490857
0.0002347652988
0.0005761961617
0.0006532265271
0.0003578816631
-0.0003753555723
-0.001544716375
-0.003113566301
-0.005118338373
-0.002663134373
-0.003423649269
-0.003914245168
-0.004078115178
-0.004173337472
-0.004239698359
-0.00426772908
-0.004215696466
-0.004031432863
-0.003671383376
-0.003121133328
-0.002406427948
-0.001613066624
-0.0008832251066
-0.0004048718587
-0.0003786884169
-0.0009676098997
-0.002238608261
-0.004208732761
-0.006801505328
-0.005551699701
-0.006265790249
-0.00676280537
-0.006974899998
-0.007185495358
-0.007429824021
-0.007679544652
-0.007860635409
-0.007877066742
-0.007632788402
-0.007057908747
-0.006129470877
-0.004914241595
-0.003576662065
-0.002387359735
-0.001689346973
-0.001818663011
-0.002989943905
-0.005341566623
-0.008632418994
-0.009425877122
-0.01007185649
-0.010587462
-0.01089742838
-0.01130926727
-0.01185455322
-0.01248477121
-0.0130879845
-0.01351154428
-0.01358357791
-0.01314054275
-0.0120788073
-0.01038689234
-0.008217936378
-0.005921013924
-0.004029923066
-0.003160670245
-0.00381445778
-0.006396760338
-0.01045920859
-0.01430068296
-0.01485986573
-0.01540563499
-0.01586218719
-0.01656568484
-0.01755017032
-0.01875066748
-0.02001641911
-0.02112921405
-0.02182090716
-0.02180213473
-0.02081658075
-0.01871794131
-0.01556971943
-0.01174963231
-0.007997283946
-0.005324546288
-0.004727671151
-0.0071489203
-0.01194494617
-0.02013100737
-0.02058201589
-0.02115112357
-0.02177015157
-0.02282055905
-0.02435231168
-0.02629381784
-0.02846083429
-0.03056824126
-0.03223923621
-0.03302819264
-0.03247333566
-0.03021728929
-0.02611789467
-0.02047020123
-0.01415621947
-0.008650537132
-0.00569060624
-0.007185296571
-0.01243165199
-0.02682641748
-0.02713357684
-0.02767325412
-0.02839070566
-0.02975171569
-0.03184470318
-0.03460658265
-0.03782950465
-0.041166985
-0.04413321137
-0.0461138654
-0.04640507435
-0.04439189137
-0.03959374605
-0.03206130876
-0.02264660253
-0.0132221165
-0.006447986754
-0.005774566555
-0.01073215067
-0.03429949589
-0.03438493144
-0.03475610199
-0.03536868167
-0.03685108405
-0.03936238004
-0.04286453015
-0.04713447208
-0.05177045252
-0.0561846458
-0.05960464676
-0.06111703308
-0.05970981833
-0.05459170574
-0.04538363507
-0.03264938885
-0.01841000932
-0.006209396604
-0.001642450236
-0.004844976176
-0.04257134555
-0.04224352663
-0.0421604686
-0.04225926718
-0.04347294722
-0.04606938267
-0.05004514208
-0.05515883948
-0.06094793029
-0.06672618699
-0.07157047274
-0.0743466875
-0.07377189744
-0.06862099654
-0.05802496056
-0.04202108665
-0.02240498702
-0.003227198285
0.007372343486
0.008362614219
-0.05197105005
-0.0507248319
-0.049643535
-0.04854454895
-0.04888960908
-0.05107763697
-0.05512328968
-0.06074031001
-0.06737465665
-0.07422736085
-0.08022219719
-0.08402092257
-0.08408312449
-0.07879848939
-0.06681163531
-0.04749812754
-0.0221064281
0.005519798674
0.0247304378
0.03353844838
-0.0636187179
-0.06015559306
-0.05706694576
-0.05373556347
-0.05243522351
-0.05364513648
-0.05732222197
-0.06309116875
-0.07020993738
-0.07774731302
-0.08444205125
-0.08874212411
-0.08886485265
-0.08281564534
-0.06883604282
-0.04561239997
-0.013747581
0.02442011268
0.05554176326
0.0773557001
-0.08015449386
-0.07104700566
-0.06409786138
-0.0571452343
-0.05341082909
-0.05319031613
-0.05622692037
-0.06187493165
-0.06921486579
-0.0770716786
-0.08397017439
-0.08811690098
-0.08745476197
-0.07964347897
-0.06247731318
-0.03405651446
0.005549816989
0.05858941811
0.10581368
0.148057506
-0.1104836895
-0.08583519935
-0.07159301044
-0.05896182266
-0.05190403927
-0.04986836801
-0.05208024043
-0.05747838031
-0.06482335078
-0.0726704112
-0.07930473543
-0.08268547892
-0.08050315297
-0.06988074343
-0.04823700681
-0.01273584579
0.03821740229
0.1071140923
0.177960527
0.2564577868
-0.1684212458
-0.09989605051
-0.07500312835
-0.05479690394
-0.044617276
-0.04157809961
-0.04370227395
-0.04935760887
-0.05698675215
-0.06493764441
-0.07133035622
-0.07395463924
-0.07011241416
-0.05700862199
-0.03103437381
0.01191477173
0.07557920571
0.1663823223
0.2761397196
0.4376829639
-0.3984130156
-0.1380888795
-0.07496744282
-0.047090371
-0.03355110981
-0.03002657087
-0.03279052
-0.03924471055
-0.04753168975
-0.05590892617
-0.06247090371
-0.06500512124
-0.06097873677
-0.04696325984
-0.01876042908
0.02992334386
0.1069376956
0.2334068066
0.4198591298
0.7800028855
)


// ************************************************************************* //
