/*--------------------------------*- C++ -*----------------------------------*\
  =========                 |
  \\      /  F ield         | OpenFOAM: The Open Source CFD Toolbox
   \\    /   O peration     | Website:  https://openfoam.org
    \\  /    A nd           | Version:  13
     \\/     M anipulation  |
\*---------------------------------------------------------------------------*/
FoamFile
{
    format      ascii;
    class       volScalarField;
    location    "2";
    object      p;
}
// * * * * * * * * * * * * * * * * * * * * * * * * * * * * * * * * * * * * * //

dimensions      [0 2 -2 0 0 0 0];

internalField   nonuniform List<scalar> 
100
(
5.16971e-10
0.000172743
0.00154141
0.00412191
0.00756242
0.011391
0.0150525
0.0179465
0.0195492
0.0198175
-0.000170132
-4.90909e-05
0.00131656
0.00388906
0.00733406
0.0112022
0.0149481
0.0179573
0.0196644
0.0199512
-0.00165471
-0.00158211
-6.60145e-05
0.00279532
0.00663896
0.0110098
0.0153362
0.0189164
0.0210203
0.0213965
-0.004968
-0.00486466
-0.00297977
0.000513831
0.00519909
0.0106097
0.0161347
0.0209276
0.0239523
0.0247148
-0.0107022
-0.0104276
-0.0078793
-0.00335962
0.00264687
0.00969505
0.0171763
0.0240965
0.0289534
0.0307934
-0.0198887
-0.019116
-0.015436
-0.00937989
-0.00149869
0.0078597
0.0182263
0.028607
0.0369371
0.041488
-0.0343851
-0.0321328
-0.0263977
-0.018006
-0.00755094
0.00483472
0.0191206
0.0348049
0.0495299
0.060543
-0.0581357
-0.0508095
-0.0408826
-0.0287812
-0.014921
0.00105275
0.0200891
0.0432452
0.0692962
0.095356
-0.0992045
-0.0741908
-0.055959
-0.0387135
-0.021244
-0.00192973
0.0218084
0.0540233
0.0986638
0.160496
-0.185426
-0.100644
-0.0652296
-0.0438597
-0.0246223
-0.00346116
0.0237497
0.0661806
0.141108
0.278668
)
;

boundaryField
{
    movingWall
    {
        type            zeroGradient;
    }
    fixedWalls
    {
        type            zeroGradient;
    }
    frontAndBack
    {
        type            empty;
    }
}


// ************************************************************************* //
