/*--------------------------------*- C++ -*----------------------------------*\
  =========                 |
  \\      /  F ield         | OpenFOAM: The Open Source CFD Toolbox
   \\    /   O peration     | Website:  https://openfoam.org
    \\  /    A nd           | Version:  13
     \\/     M anipulation  |
\*---------------------------------------------------------------------------*/
FoamFile
{
    format      ascii;
    class       surfaceScalarField;
    location    "2";
    object      phi_0;
}
// * * * * * * * * * * * * * * * * * * * * * * * * * * * * * * * * * * * * * //

dimensions      [0 3 -1 0 0 0 0];

internalField   nonuniform List<scalar> 
180
(
-0.000194263
0.000194262
-0.000558455
0.000364192
-0.000859387
0.000300933
-0.00105445
0.000195066
-0.00112173
6.72781e-05
-0.00105445
-6.7278e-05
-0.000859387
-0.000195065
-0.000558455
-0.000300933
-0.000194262
-0.000364192
-0.000194263
-0.000433076
0.000627339
-0.00140409
0.00133521
-0.00217295
0.00106979
-0.00266336
0.000685477
-0.0028314
0.000235316
-0.00266336
-0.000235318
-0.00217295
-0.000685476
-0.00140409
-0.00106978
-0.000433075
-0.00133521
-0.000627338
-0.000532285
0.00115963
-0.00166414
0.00246707
-0.00255039
0.00195604
-0.00310591
0.00124099
-0.0032942
0.000423608
-0.00310591
-0.000423608
-0.00255039
-0.00124099
-0.00166414
-0.00195604
-0.000532284
-0.00246706
-0.00115963
-0.000711544
0.00187117
-0.00215685
0.00391237
-0.00324251
0.0030417
-0.00389818
0.00189666
-0.00411569
0.000641113
-0.00389818
-0.000641112
-0.00324251
-0.00189666
-0.00215685
-0.0030417
-0.000711545
-0.00391237
-0.00187117
-0.00102955
0.00290072
-0.00296448
0.00584729
-0.00431045
0.00438767
-0.0050705
0.00265672
-0.00531303
0.000883644
-0.0050705
-0.000883644
-0.00431045
-0.00265672
-0.00296448
-0.00438767
-0.00102955
-0.00584729
-0.00290072
-0.00160251
0.00450323
-0.00420608
0.00845086
-0.00578228
0.00596387
-0.00656828
0.00344272
-0.00680096
0.00111632
-0.00656828
-0.00111633
-0.00578228
-0.00344272
-0.00420608
-0.00596387
-0.00160251
-0.00845086
-0.00450323
-0.00266004
0.00716328
-0.00593616
0.011727
-0.00743423
0.00746194
-0.00798699
0.00399548
-0.00811708
0.00124641
-0.00798699
-0.00124641
-0.00743423
-0.00399548
-0.00593616
-0.00746194
-0.00266004
-0.011727
-0.00716328
-0.00452018
0.0116835
-0.00756676
0.0147736
-0.0079956
0.00789079
-0.00775438
0.00375425
-0.00761278
0.00110481
-0.00775438
-0.00110481
-0.0079956
-0.00375425
-0.00756676
-0.00789079
-0.00452018
-0.0147736
-0.0116835
-0.00659057
0.018274
-0.00528865
0.0134716
-0.00247804
0.00508017
-0.000648839
0.00192505
-5.15835e-05
0.000507559
-0.000648839
-0.000507558
-0.00247804
-0.00192505
-0.00528865
-0.00508017
-0.00659057
-0.0134716
-0.018274
0.018274
0.0317457
0.0368258
0.0387509
0.0392584
0.0387509
0.0368258
0.0317457
0.018274
)
;

boundaryField
{
    movingWall
    {
        type            calculated;
        value           uniform 0;
    }
    fixedWalls
    {
        type            calculated;
        value           uniform 0;
    }
    frontAndBack
    {
        type            empty;
    }
}


// ************************************************************************* //
