/*--------------------------------*- C++ -*----------------------------------*\
  =========                 |
  \\      /  F ield         | OpenFOAM: The Open Source CFD Toolbox
   \\    /   O peration     | Website:  https://openfoam.org
    \\  /    A nd           | Version:  13
     \\/     M anipulation  |
\*---------------------------------------------------------------------------*/
FoamFile
{
    format      ascii;
    class       volVectorField;
    location    "2";
    object      U_0;
}
// * * * * * * * * * * * * * * * * * * * * * * * * * * * * * * * * * * * * * //

dimensions      [0 1 -1 0 0 0 0];

internalField   nonuniform List<vector> 
100
(
(-0.000678382 0.000678775 0)
(-0.00358238 0.000976345 0)
(-0.0063796 0.000806757 0)
(-0.00861151 0.000522943 0)
(-0.00979203 0.000180363 0)
(-0.00979203 -0.000180362 0)
(-0.00861151 -0.000522941 0)
(-0.0063796 -0.000806756 0)
(-0.00358237 -0.000976346 0)
(-0.000678376 -0.000678778 0)
(-0.0011581 0.00389261 0)
(-0.00905476 0.00830984 0)
(-0.0160934 0.00671568 0)
(-0.0217597 0.0043173 0)
(-0.0247227 0.00148406 0)
(-0.0247227 -0.00148407 0)
(-0.0217597 -0.00431729 0)
(-0.0160934 -0.00671567 0)
(-0.00905476 -0.00830982 0)
(-0.0011581 -0.00389261 0)
(-0.00141642 0.00804134 0)
(-0.0108508 0.0171103 0)
(-0.0189538 0.0136162 0)
(-0.0254409 0.00866911 0)
(-0.0287879 0.00296516 0)
(-0.0287879 -0.00296517 0)
(-0.0254409 -0.0086691 0)
(-0.0189538 -0.0136162 0)
(-0.0108508 -0.0171102 0)
(-0.00141642 -0.00804134 0)
(-0.00186942 0.0136386 0)
(-0.0141963 0.0287075 0)
(-0.0242575 0.0224898 0)
(-0.032092 0.0141194 0)
(-0.0360213 0.00479124 0)
(-0.0360213 -0.00479124 0)
(-0.032092 -0.0141194 0)
(-0.0242575 -0.0224898 0)
(-0.0141963 -0.0287074 0)
(-0.00186943 -0.0136386 0)
(-0.00261922 0.0214735 0)
(-0.0198218 0.0439185 0)
(-0.032602 0.0334322 0)
(-0.0420788 0.0204902 0)
(-0.0465925 0.00686141 0)
(-0.0465926 -0.0068614 0)
(-0.0420788 -0.0204902 0)
(-0.0326019 -0.0334322 0)
(-0.0198218 -0.0439185 0)
(-0.00261922 -0.0214735 0)
(-0.00375689 0.0333178 0)
(-0.0289556 0.0643417 0)
(-0.0444892 0.0465819 0)
(-0.0551347 0.0274475 0)
(-0.0597306 0.00899986 0)
(-0.0597306 -0.00899987 0)
(-0.0551347 -0.0274475 0)
(-0.0444892 -0.0465819 0)
(-0.0289556 -0.0643417 0)
(-0.00375689 -0.0333178 0)
(-0.00496234 0.0524993 0)
(-0.0431417 0.0908003 0)
(-0.0586305 0.0604161 0)
(-0.0679603 0.0334719 0)
(-0.0710809 0.0106323 0)
(-0.0710809 -0.0106323 0)
(-0.0679603 -0.0334719 0)
(-0.0586305 -0.0604161 0)
(-0.0431417 -0.0908003 0)
(-0.00496234 -0.0524993 0)
(-0.0028004 0.0848103 0)
(-0.0612956 0.119252 0)
(-0.0649827 0.0690873 0)
(-0.0662678 0.0348738 0)
(-0.0646982 0.0105805 0)
(-0.0646982 -0.0105805 0)
(-0.0662678 -0.0348738 0)
(-0.0649827 -0.0690873 0)
(-0.0612956 -0.119252 0)
(-0.0028004 -0.0848103 0)
(0.0257119 0.15319 0)
(-0.0621879 0.15161 0)
(-0.0188789 0.0676109 0)
(0.00058664 0.0290588 0)
(0.0111442 0.00817899 0)
(0.0111442 -0.00817898 0)
(0.000586631 -0.0290588 0)
(-0.0188789 -0.0676109 0)
(-0.0621879 -0.15161 0)
(0.0257119 -0.15319 0)
(0.253564 0.0638516 0)
(0.269818 0.0361155 0)
(0.35761 0.0136192 0)
(0.386552 0.00516078 0)
(0.397057 0.00136069 0)
(0.397057 -0.00136069 0)
(0.386552 -0.00516078 0)
(0.35761 -0.0136192 0)
(0.269818 -0.0361155 0)
(0.253564 -0.0638516 0)
)
;

boundaryField
{
    movingWall
    {
        type            calculated;
        value           uniform (1 0 0);
    }
    fixedWalls
    {
        type            calculated;
        value           uniform (0 0 0);
    }
    frontAndBack
    {
        type            empty;
    }
}


// ************************************************************************* //
