/*--------------------------------*- C++ -*----------------------------------*\
  =========                 |
  \\      /  F ield         | OpenFOAM: The Open Source CFD Toolbox
   \\    /   O peration     | Website:  https://openfoam.org
    \\  /    A nd           | Version:  13
     \\/     M anipulation  |
\*---------------------------------------------------------------------------*/
FoamFile
{
    format      ascii;
    class       vectorField;
    location    "44.03";
    object      U_all;
}
// * * * * * * * * * * * * * * * * * * * * * * * * * * * * * * * * * * * * * //


400
(
(1.100713523e-05 -3.783117596e-05 0)
(-0.0006660937416 0.0004130431356 -1.551344448e-23)
(-0.002185373278 0.0009203936317 0)
(-0.004047831094 0.001312779969 0)
(-0.00597186754 0.001535064601 6.845782308e-25)
(-0.007762784628 0.001569847964 4.150901006e-24)
(-0.009284547935 0.001423565609 -7.37378028e-24)
(-0.01043594329 0.001119726106 7.530288842e-24)
(-0.01113681393 0.0006960843737 -2.095368174e-25)
(-0.01132710933 0.0002030773579 -3.994628161e-24)
(-0.0109717708 -0.0003002352747 5.803581413e-24)
(-0.01007232805 -0.0007475181737 -5.929523637e-23)
(-0.008679882138 -0.001075563323 -6.552655792e-23)
(-0.006902855537 -0.00123304361 -7.784272349e-23)
(-0.004910739681 -0.001192637073 4.573567302e-24)
(-0.002927232405 -0.0009619191749 -4.137911438e-24)
(-0.001205299613 -0.0005912109455 -1.998739035e-22)
(-1.906995146e-05 -0.0001698825032 0)
(0.0005181518812 0.0001720862433 1.509546717e-25)
(0.00022275037 0.0003059792777 -2.552277161e-24)
(-0.00026336191 0.0008289705837 1.38294231e-25)
(-0.002703304081 0.003383842879 1.561142382e-23)
(-0.006907276619 0.005604502535 1.555412092e-25)
(-0.01195231933 0.007008207504 -8.495760188e-25)
(-0.01713504294 0.007553774459 1.162193779e-24)
(-0.02197535289 0.007294198274 1.306958539e-23)
(-0.02611076111 0.006321894808 1.38776386e-24)
(-0.02926564997 0.004754195895 -7.28203399e-24)
(-0.03122673376 0.002737154983 1.015247295e-23)
(-0.03184201227 0.0004524074919 4.509969444e-24)
(-0.03102761469 -0.001884145384 -6.318851814e-24)
(-0.02879316519 -0.004023031376 2.961611116e-24)
(-0.02527138275 -0.005708355726 3.895509881e-23)
(-0.02073194932 -0.006707409023 -1.954753614e-24)
(-0.01558962817 -0.006854138223 3.754449876e-24)
(-0.01038513635 -0.006097462084 -9.740866485e-23)
(-0.00573027465 -0.004546184851 9.637583252e-23)
(-0.002233369514 -0.002507417957 -3.961091863e-25)
(-0.000181778048 -0.0005023713247 4.060991323e-25)
(8.343357109e-05 0.0006099270418 0)
(-0.0004188225805 0.002935079503 -2.910372026e-25)
(-0.004647873181 0.008804015047 1.702012383e-23)
(-0.01137196005 0.01324042565 -8.284294706e-24)
(-0.01932729237 0.0157920439 -2.07549345e-25)
(-0.02747411867 0.01653000215 2.038955618e-25)
(-0.03511778872 0.01564441602 6.809755039e-27)
(-0.04171344746 0.01335997347 -1.220270322e-24)
(-0.04683571665 0.009919768921 -4.551209597e-25)
(-0.05014989008 0.005602433175 -1.063066326e-23)
(-0.05141232145 0.0007444221263 0)
(-0.05047793536 -0.004241778935 0)
(-0.04733706435 -0.008887186806 2.67100299e-23)
(-0.04215927901 -0.01268177047 2.813008485e-23)
(-0.03531437321 -0.01513605288 -1.646152245e-24)
(-0.02738996187 -0.01586189557 4.845824668e-23)
(-0.01917005952 -0.01467334024 9.419172427e-23)
(-0.01156090973 -0.0116936016 3.975579154e-23)
(-0.005465415657 -0.007450740892 4.141590655e-25)
(-0.001451102848 -0.002936041739 1.073888089e-25)
(-9.072900404e-05 0.0002258791282 0)
(-0.0005024628727 0.00604535075 -4.248859288e-23)
(-0.006402738701 0.01637075512 -1.692236588e-23)
(-0.01553502278 0.02355933559 8.211140498e-24)
(-0.02627912073 0.02744162768 0)
(-0.03728746983 0.02832102476 0)
(-0.04769037775 0.0265877281 0)
(-0.0567966322 0.0226312042 -4.466941038e-26)
(-0.06405384071 0.01683609166 -2.136747834e-24)
(-0.06901081503 0.009622181691 0)
(-0.07130827968 0.001491048374 1.635400917e-24)
(-0.0707085374 -0.006936504601 2.802740951e-25)
(-0.06713039681 -0.01493018901 -2.810588561e-25)
(-0.06069905777 -0.02166728283 0)
(-0.05180750531 -0.02631605948 4.133255468e-23)
(-0.04114991561 -0.0281607106 -4.681538509e-23)
(-0.02971970158 -0.02677372337 -2.76189389e-23)
(-0.01873716794 -0.02221530517 -3.96072351e-23)
(-0.009488031421 -0.01521922098 7.795862447e-25)
(-0.002976882844 -0.007298193026 9.790409756e-23)
(-0.0002318810586 -0.000866166008 0)
(-0.0005316137172 0.01009501772 4.269520182e-23)
(-0.007983593131 0.02595219728 4.785327792e-25)
(-0.01939687367 0.03642882876 -4.67603247e-25)
(-0.03282382373 0.04185520725 0)
(-0.04664689091 0.04289485346 7.782963646e-25)
(-0.05985229935 0.04020074289 -7.675050025e-25)
(-0.07163291715 0.03434741962 3.672283972e-23)
(-0.0813275152 0.0258566427 1.84819542e-23)
(-0.08836601242 0.01527298347 6.238822447e-24)
(-0.09225469657 0.003246145637 -1.637306181e-24)
(-0.09260379936 -0.009407834492 0)
(-0.08917555703 -0.02167478241 4.370594111e-25)
(-0.08195979409 -0.03236745292 1.009006881e-23)
(-0.07126885471 -0.04021250412 -4.349286459e-23)
(-0.05782018722 -0.04402046643 1.93288491e-24)
(-0.04278582853 -0.04294829655 4.217199912e-23)
(-0.02775450332 -0.03683347143 -3.841643218e-25)
(-0.01455062464 -0.02652721052 0)
(-0.004859463912 -0.01408454416 5.436538896e-23)
(-0.0003641489583 -0.002846952097 -2.565081556e-22)
(-0.000527221613 0.01499927785 9.841543908e-23)
(-0.009377926107 0.03739022595 -4.907777471e-25)
(-0.02288182817 0.05170223295 0)
(-0.0388304353 0.05894183291 0)
(-0.0553865681 0.060255747 -8.732114079e-23)
(-0.07142876803 0.0566190115 -8.499084714e-23)
(-0.08606654384 0.04880168937 -4.067538464e-23)
(-0.09855086295 0.03743980726 -1.504362087e-23)
(-0.1081945342 0.0231598413 -5.36886604e-24)
(-0.1143444759 0.006709679766 -8.174975459e-24)
(-0.1164046238 -0.01093292235 6.601100143e-24)
(-0.1138937427 -0.02848945219 8.826650588e-24)
(-0.1065487 -0.04437046483 -1.892314409e-23)
(-0.09446804127 -0.05675334024 4.607459773e-24)
(-0.07826856856 -0.06378298952 0)
(-0.05922895333 -0.06393495714 -1.57285541e-23)
(-0.03933981835 -0.05653816523 -2.429390701e-26)
(-0.02114188826 -0.04235809249 0)
(-0.007318703081 -0.02398229408 -1.520651338e-22)
(-0.0005216165597 -0.005925544477 6.056277103e-22)
(-0.0004990817929 0.02064574479 -9.774495724e-23)
(-0.01052950946 0.05045438317 2.831985723e-22)
(-0.02582957529 0.06912512026 1.526862091e-22)
(-0.04402138436 0.07849258248 3.619281412e-24)
(-0.06310739306 0.08029476653 -7.319356817e-23)
(-0.08190405195 0.07588043041 9.043540603e-23)
(-0.09947763779 0.06621690769 -3.590214933e-24)
(-0.115022739 0.05201695152 -1.729171304e-24)
(-0.1277519199 0.03392358609 2.524162189e-24)
(-0.1368472628 0.01270233306 7.382610209e-24)
(-0.1414710554 -0.01058782263 -6.500848881e-24)
(-0.1408248212 -0.03446024388 -9.788068534e-24)
(-0.1342745992 -0.05692771803 -3.261733562e-23)
(-0.1215450252 -0.07553316368 -3.661461065e-23)
(-0.1029672659 -0.08754260745 5.6458956e-25)
(-0.07976369848 -0.09039209855 0)
(-0.05426682419 -0.08244513906 0)
(-0.02987160906 -0.06397736958 -2.906069121e-24)
(-0.01066285126 -0.03798794749 2.97051845e-24)
(-0.0007350935028 -0.01050089493 1.02787228e-22)
(-0.0004479156397 0.02687251127 0)
(-0.01134923105 0.06480757561 2.001981023e-22)
(-0.02801599662 0.08829617426 8.96205394e-23)
(-0.04799857453 0.1001234975 0)
(-0.06920602183 0.1027076583 1.569884894e-22)
(-0.09044373384 0.09781578846 0)
(-0.1107831695 0.08661103167 -1.428389684e-22)
(-0.1294093775 0.06983950436 6.515566223e-24)
(-0.1454771652 0.04808232273 0)
(-0.158035184 0.02201755673 0)
(-0.1660133492 -0.007334438631 -1.374412172e-24)
(-0.1682671597 -0.03838839639 -9.316771651e-25)
(-0.1637064731 -0.06883975809 1.491980319e-22)
(-0.1515208786 -0.09558275762 -4.704635922e-23)
(-0.1315134567 -0.1148298664 -2.560971531e-24)
(-0.104559608 -0.122570342 1.534732174e-24)
(-0.07309349892 -0.1155517976 -1.558941472e-24)
(-0.04135021482 -0.09283115659 0)
(-0.01525230265 -0.05740767694 3.20381611e-24)
(-0.001044308934 -0.01714714504 -1.012915201e-21)
(-0.0003744660819 0.03346304638 0)
(-0.01175005976 0.07998918827 -1.128293024e-22)
(-0.02920707834 0.1086390957 -6.191156189e-22)
(-0.05031745051 0.1232234011 -3.755310418e-22)
(-0.07296317603 0.1269097058 0)
(-0.09598960408 0.1219255662 4.119459792e-22)
(-0.1185273501 0.1096348658 1.260926164e-22)
(-0.1398146433 0.09078245946 -5.581840347e-24)
(-0.1590221564 0.06581393193 5.554213237e-24)
(-0.1751461025 0.03520881129 0)
(-0.1869560017 -0.0001967465328 2.912133332e-23)
(-0.1930172687 -0.03889754251 4.695843631e-24)
(-0.1917809951 -0.07843888449 -1.076809571e-22)
(-0.1817874467 -0.1151865374 8.004215724e-23)
(-0.1620570457 -0.1442599466 -2.419748657e-22)
(-0.1327062014 -0.1598548636 0)
(-0.09577888234 -0.1563112897 0)
(-0.05601633099 -0.1302981093 0)
(-0.02147859151 -0.08381135174 0)
(-0.001500384562 -0.0266551632 5.572121896e-22)
(-0.0002873900773 0.04016077875 0)
(-0.01169359597 0.09543611721 -3.493018899e-22)
(-0.029244382 0.1294073648 8.932806752e-22)
(-0.0506094726 0.1469299188 3.617182625e-22)
(-0.07370082729 0.1519748693 0)
(-0.09745151266 0.147275798 -3.862557433e-22)
(-0.1211069848 0.1344191964 -3.174432085e-23)
(-0.1440324791 0.1141393325 3.33310665e-22)
(-0.1655143238 0.08670006613 1.769475743e-22)
(-0.1846248528 0.05229123458 -4.060154551e-23)
(-0.2001325825 0.01141716157 1.656821882e-23)
(-0.2104622464 -0.03471424163 -8.265255316e-24)
(-0.2137208552 -0.08376563614 3.371860746e-22)
(-0.207821552 -0.131875635 0)
(-0.1908238552 -0.1732756143 2.420917685e-22)
(-0.1616335748 -0.2002593404 5.774786034e-24)
(-0.1211662697 -0.204012172 -5.860905175e-24)
(-0.07384989846 -0.1772119967 1.548451025e-22)
(-0.02971786851 -0.1188642333 -5.435469312e-24)
(-0.002179545162 -0.04005398755 0)
(-0.0002117199316 0.04671640069 0)
(-0.01125001042 0.1105498148 0)
(-0.02815624378 0.149735503 -5.022760589e-22)
(-0.04874479272 0.170151763 -1.880999156e-23)
(-0.07100086681 0.1766257171 2.03837969e-23)
(-0.09399451572 0.1724526532 -2.014312176e-23)
(-0.1171434304 0.1594871003 -2.316884514e-23)
(-0.1400179501 0.1384805089 -3.029825056e-22)
(-0.1621328881 0.1095160713 6.698613313e-23)
(-0.1827959027 0.0724518687 4.513180723e-23)
(-0.2009835551 0.02734928721 -4.577723747e-23)
(-0.2152270263 -0.02508697878 0)
(-0.2235562216 -0.08298351461 -7.839694081e-23)
(-0.2234632203 -0.1427257341 0)
(-0.2120679439 -0.1981820893 -3.739564682e-22)
(-0.1867434555 -0.240077371 5.244958501e-22)
(-0.1464438309 -0.2560773428 0)
(-0.0939456777 -0.2331209519 -1.493997027e-22)
(-0.04022001015 -0.1639613669 1.937553601e-22)
(-0.00320110029 -0.05861063165 -3.411533117e-22)
(-0.0002015405235 0.0529758512 0)
(-0.0106726177 0.1248172405 9.182874951e-22)
(-0.02628446576 0.1687424607 -2.440687033e-23)
(-0.0450110778 0.1916455169 9.193345089e-22)
(-0.06494597547 0.1992921082 -2.51208806e-23)
(-0.08536628612 0.1956104342 2.838845601e-23)
(-0.1059305653 0.1827886861 -2.812931648e-23)
(-0.1264924185 0.1616583517 -1.660918643e-23)
(-0.1468996839 0.1321762298 -5.260231216e-22)
(-0.1668458147 0.09389646524 -8.906632027e-24)
(-0.1857303015 0.04640576136 9.660200111e-24)
(-0.2024781678 -0.01023784925 3.313079024e-22)
(-0.2154154609 -0.07499820513 -5.820742774e-22)
(-0.2220209714 -0.1450311856 0)
(-0.2188032104 -0.2146760636 8.887328629e-22)
(-0.2016257526 -0.2740016441 -4.940890874e-22)
(-0.1668639195 -0.3075811976 -1.572224471e-23)
(-0.1140220096 -0.2953811929 0)
(-0.05288482031 -0.219580259 -1.890187247e-22)
(-0.00474918816 -0.08377277992 3.360590837e-22)
(-0.0003641979903 0.05902317801 1.551011111e-23)
(-0.01049573805 0.1379881512 -8.764202311e-22)
(-0.02441389396 0.1856804119 -1.157059788e-21)
(-0.04026724367 0.2101384773 -8.628993638e-22)
(-0.0563072963 0.2182348936 0)
(-0.07214856601 0.2146190296 3.51380719e-23)
(-0.08779221634 0.2018791978 -7.294870133e-23)
(-0.1034562786 0.1810005625 5.86788714e-23)
(-0.1193983864 0.1518997248 3.021368009e-22)
(-0.1357931536 0.1139150567 -1.128196167e-23)
(-0.152608231 0.06621424866 0)
(-0.1694521366 0.008177202228 -3.603931219e-22)
(-0.1852760591 -0.06015987832 7.515671156e-22)
(-0.1980448513 -0.1372747025 8.831707268e-22)
(-0.2043546262 -0.2189261902 -5.296629986e-22)
(-0.1990977613 -0.2959712927 5.162692225e-22)
(-0.1760605331 -0.3514072604 1.078234129e-23)
(-0.1300890633 -0.3584150799 -1.095549189e-23)
(-0.06688803316 -0.2843276523 -8.215297568e-23)
(-0.007083319936 -0.1169964423 0)
(-0.0009095772532 0.06540041599 -1.9114876e-23)
(-0.01167591598 0.1502816418 -1.326966053e-21)
(-0.02388881908 0.2000659566 1.094238136e-21)
(-0.03601340304 0.2244216974 6.734933554e-22)
(-0.04657308688 0.2316588258 6.01463501e-22)
(-0.05577038481 0.2272393717 6.643960371e-22)
(-0.06411245705 0.21417749 -4.45867947e-23)
(-0.07227561543 0.1936494401 -3.461338508e-22)
(-0.08096972797 0.1656028331 2.152163184e-22)
(-0.09087192139 0.1292707361 0)
(-0.1025547434 0.08353082472 0)
(-0.1163622138 0.0272001068 2.65539765e-22)
(-0.1321589543 -0.04062006079 8.19432671e-23)
(-0.1489252304 -0.1200128315 -2.821624679e-22)
(-0.1641284271 -0.2089300697 -5.411273382e-23)
(-0.1727877613 -0.3006992514 1.301952073e-22)
(-0.1670311302 -0.379332911 -3.40050678e-22)
(-0.1365292439 -0.4136451978 -1.593832831e-23)
(-0.08018250145 -0.3538326212 8.204070273e-23)
(-0.01050762295 -0.1594130574 -6.032159085e-22)
(-0.002260498262 0.07348883559 0)
(-0.01580355586 0.1626521778 2.145875278e-21)
(-0.02665042474 0.2117904739 0)
(-0.03422339503 0.2333947269 -1.351808502e-21)
(-0.03759398403 0.2377766826 6.184050247e-23)
(-0.03799685184 0.2312553531 -6.19309779e-22)
(-0.03668265847 0.2171899026 -4.756286252e-22)
(-0.03489036267 0.196893451 8.301257989e-22)
(-0.0337883781 0.1703342399 -1.885698683e-22)
(-0.03449876314 0.1367221088 0)
(-0.03811572577 0.09479673702 0)
(-0.04564992297 0.04304286626 2.410616501e-23)
(-0.05790804186 -0.02013781215 -6.007200091e-22)
(-0.0751459846 -0.09620650214 -4.30956817e-22)
(-0.09645174937 -0.1855556174 4.637863758e-22)
(-0.1183462614 -0.2853567774 -6.488737556e-22)
(-0.1332715382 -0.3838386538 9.119947719e-23)
(-0.1265350988 -0.4504358718 2.937317317e-23)
(-0.08899154092 -0.4198536381 5.660444148e-22)
(-0.01526917934 -0.2111719735 6.020791828e-22)
(-0.005180899382 0.08598046007 0)
(-0.0252555068 0.1766291198 1.465579405e-22)
(-0.03483407961 0.2205961555 -4.917145715e-23)
(-0.03640013821 0.2354859344 7.642932861e-22)
(-0.03018482939 0.2343406746 -7.005380385e-22)
(-0.01916579296 0.224160388 4.746482428e-23)
(-0.005615148931 0.2083525848 -1.018610066e-22)
(0.008569608991 0.1881241096 -3.389889717e-22)
(0.02179886288 0.163391128 2.06282337e-22)
(0.03262781581 0.1333242741 0)
(0.03958458669 0.09664086247 0)
(0.04117013371 0.05174056475 -2.902668334e-22)
(0.03578483931 -0.003255397793 0)
(0.02198184778 -0.07058360856 -5.51218823e-22)
(-0.001264845271 -0.1525735509 -1.49237695e-23)
(-0.03310469823 -0.250594985 2.559741547e-23)
(-0.06909235779 -0.3599341519 2.203143501e-22)
(-0.09227826983 -0.457542453 4.788085062e-24)
(-0.08718089922 -0.4698129418 -5.789412596e-22)
(-0.02103127152 -0.26989723 0)
(-0.01111631536 0.1085974986 0)
(-0.04248901863 0.1947151685 -8.848480466e-22)
(-0.0479552896 0.2258195514 -5.411040483e-22)
(-0.03919535952 0.2282135556 4.543817436e-22)
(-0.0187783023 0.2182328133 -1.709981587e-24)
(0.007664315011 0.2028220351 -4.561050686e-23)
(0.03667993512 0.1847619764 5.696683674e-22)
(0.06582998679 0.1647118212 -2.766891245e-23)
(0.09327130963 0.1423128176 -2.069782255e-22)
(0.1173891613 0.1166274937 3.14221428e-23)
(0.1365461692 0.08641143869 -3.425917915e-23)
(0.1489669272 0.05017668995 -3.690594883e-23)
(0.1525275785 0.006159166459 3.205634182e-22)
(0.1449367035 -0.04796127079 6.119607517e-22)
(0.1235159793 -0.1153052914 -5.101172751e-22)
(0.08633533439 -0.2004195654 -1.616058889e-22)
(0.03199089288 -0.3067806595 1.531307507e-22)
(-0.02362123163 -0.4239837149 7.293652806e-23)
(-0.06492413064 -0.4871612792 1.913291676e-21)
(-0.02509971708 -0.3291544747 2.954991539e-21)
(-0.02004680493 0.1460727424 -4.390208156e-23)
(-0.06416406303 0.211295587 4.417380909e-23)
(-0.05070230638 0.2177300487 1.000188709e-21)
(-0.01934097387 0.2014679988 -8.270567071e-24)
(0.02414464956 0.1809076181 0)
(0.07154122113 0.1606933346 4.363723352e-23)
(0.1190703411 0.1416495487 -2.273852577e-22)
(0.1644767336 0.1233181812 -9.027959462e-23)
(0.2062251161 0.1048117283 3.680735472e-23)
(0.2429643025 0.08507139971 -1.70165541e-23)
(0.2732207582 0.06296147568 3.429971223e-23)
(0.2952536113 0.0372629372 -6.592682611e-23)
(0.3066971065 0.006535067233 -9.303907828e-23)
(0.3049738318 -0.03087770134 1.517044501e-22)
(0.2863936253 -0.07786291049 0)
(0.2470568087 -0.1399300376 1.505611969e-22)
(0.1810922237 -0.2266299758 2.560013959e-22)
(0.09604450247 -0.3443894952 0)
(-0.00669761595 -0.4552210222 -3.675634932e-21)
(-0.01922408206 -0.377753759 -2.89262101e-21)
(-0.02591951409 0.2276828819 -9.51420505e-22)
(-0.03998324774 0.2238216541 -1.388976632e-22)
(0.03656136771 0.181058537 -2.335582182e-22)
(0.1090503038 0.1451059096 -1.193742346e-22)
(0.1817191191 0.1172445495 -4.295827079e-23)
(0.2490090733 0.09627907588 9.783184666e-23)
(0.3100336704 0.0800251034 -1.408592674e-22)
(0.3646209336 0.06656815237 1.297175721e-22)
(0.4126252498 0.05449178783 -8.620123029e-23)
(0.4536250306 0.04270894819 1.13219064e-25)
(0.4867878732 0.03032298319 1.527742128e-23)
(0.5107451375 0.01652901766 7.99720696e-23)
(0.5236597467 0.0005365135127 -1.811124312e-22)
(0.5231798023 -0.01863373328 -1.617146656e-22)
(0.5052323428 -0.04286479024 -4.262956178e-23)
(0.4658715087 -0.07633231238 0)
(0.3952696501 -0.1286089388 -1.846477327e-22)
(0.291607105 -0.2208468101 8.1487634e-22)
(0.1197455106 -0.3525016905 1.631601586e-21)
(0.02670547259 -0.3775497981 2.172655915e-21)
(0.2142894462 0.1347447214 9.864990063e-22)
(0.2776311167 0.09870503622 0)
(0.4316592269 0.05810414875 -2.594321327e-22)
(0.530474933 0.03846264968 -1.741666993e-22)
(0.6016965742 0.02623419102 0)
(0.6571198956 0.01831923443 -6.009094166e-23)
(0.7015213603 0.01313600804 6.378003848e-23)
(0.7376042503 0.009542125881 -1.8001571e-23)
(0.7669368421 0.006804463146 2.885975071e-23)
(0.7902106691 0.004464743463 2.315033809e-23)
(0.8074555018 0.002221319459 0)
(0.8182621363 -0.0001500753246 -2.873033636e-23)
(0.8216499723 -0.002723848604 0)
(0.8162394203 -0.005712668909 2.738151968e-23)
(0.7991333153 -0.00961138302 1.421692774e-23)
(0.7679986348 -0.01500255119 -5.799403019e-23)
(0.7106555757 -0.02502519962 -2.535660905e-22)
(0.6235183981 -0.04204285413 -6.918101741e-22)
(0.4230091021 -0.09182968085 0)
(0.2705674689 -0.1524021841 -2.11948378e-21)
)


// ************************************************************************* //
