/*--------------------------------*- C++ -*----------------------------------*\
  =========                 |
  \\      /  F ield         | OpenFOAM: The Open Source CFD Toolbox
   \\    /   O peration     | Website:  https://openfoam.org
    \\  /    A nd           | Version:  13
     \\/     M anipulation  |
\*---------------------------------------------------------------------------*/
FoamFile
{
    format      ascii;
    class       scalarField;
    location    "11.04";
    object      p_all;
}
// * * * * * * * * * * * * * * * * * * * * * * * * * * * * * * * * * * * * * //


400
(
3.676755348e-08
-0.0005331786112
-0.0008625511816
-0.0009785884167
-0.0008903353288
-0.0006298894305
-0.0002344070604
0.0002605762673
0.0008190834824
0.001401357213
0.00196251421
0.002450714851
0.002811385591
0.002991994352
0.002951030565
0.002669753666
0.002166742358
0.001497958007
0.0008530705339
0.0002666607287
0.0005720605708
6.007434793e-06
-0.0003447298342
-0.0004753740205
-0.0004338440284
-0.0002466139801
5.701233898e-05
0.0004478372771
0.0008946434161
0.001360640482
0.001806863995
0.002182688831
0.002438435895
0.002527243653
0.002415160816
0.00209258161
0.001584577713
0.0009542709878
0.0003700885813
-0.0002843425398
0.0009224668989
0.000295219515
-9.19518471e-05
-0.0002261366743
-0.0002077085755
-6.657073792e-05
0.0001730441001
0.0004895238182
0.0008590473296
0.001250905084
0.001629695244
0.001946000256
0.002149502726
0.002191929075
0.002038137521
0.001677559595
0.00113269519
0.000458344043
-0.0002267380955
-0.001051259831
0.0009376929801
0.0002385408391
-0.0001961250821
-0.0003352700183
-0.0003302330711
-0.0002175895572
-1.85346841e-05
0.0002535035029
0.000584187148
0.0009521128879
0.001319382117
0.001640839075
0.00185739575
0.001909452206
0.001748498231
0.001350771255
0.0007269988519
-7.747539447e-05
-0.0009761065009
-0.00210701608
0.0004453850746
-0.0003006563553
-0.000763094156
-0.0009002745532
-0.000904163133
-0.0008159468554
-0.0006516969737
-0.0004134106602
-0.0001021991529
0.0002715729993
0.0006778704267
0.001068704048
0.001374183706
0.001514778102
0.001415128718
0.001022449245
0.0003223294959
-0.0006540610599
-0.001843586277
-0.003347457594
-0.0007018993801
-0.001464396315
-0.001936810148
-0.002071413881
-0.002092995381
-0.002044100792
-0.001931716689
-0.001741154014
-0.001453527597
-0.00106019414
-0.0005772117018
-4.877478978e-05
0.0004438588675
0.0007929494966
0.000878779589
0.0005950458943
-0.0001228224074
-0.001273041015
-0.002820042571
-0.004797208828
-0.002638733284
-0.003385166139
-0.003860568391
-0.00400666557
-0.004077109277
-0.004112670681
-0.004106538573
-0.004020411331
-0.003805434034
-0.003420719088
-0.002853514284
-0.00212942211
-0.001333252752
-0.0006045025572
-0.0001277498034
-0.000100020836
-0.0006811941627
-0.001936681111
-0.003883767285
-0.006445049341
-0.005474023936
-0.00617820877
-0.006660280129
-0.00685098996
-0.007029850517
-0.007233873483
-0.007438481011
-0.007574398954
-0.007550331399
-0.007274390909
-0.006680269469
-0.005743483539
-0.004532424951
-0.003207867452
-0.002035464357
-0.001352033989
-0.001487484575
-0.002652201534
-0.004983183176
-0.008240883717
-0.009279798052
-0.00992107709
-0.01042199261
-0.01070609493
-0.01107784351
-0.01157148645
-0.01214348538
-0.01268810231
-0.0130590579
-0.01309007759
-0.01262102802
-0.01155355997
-0.009873232544
-0.007730911343
-0.005469687254
-0.00361474579
-0.002772323053
-0.003435376032
-0.006004947875
-0.01003630226
-0.01407631
-0.01463675984
-0.01516839271
-0.01559451873
-0.01624931412
-0.01717040913
-0.01829908544
-0.01949231536
-0.0205399162
-0.02118103136
-0.02113178095
-0.02013946542
-0.01805821108
-0.01494895888
-0.01118304867
-0.007490126876
-0.004869306578
-0.004303931299
-0.006727152779
-0.01149957062
-0.01982591791
-0.02028474618
-0.02084127175
-0.0214266866
-0.02242147878
-0.02387999763
-0.02573821473
-0.02782120703
-0.02985352473
-0.03146692919
-0.03222222478
-0.03166173349
-0.02942831439
-0.02537699143
-0.01979692982
-0.01356079731
-0.00813001276
-0.00522581366
-0.006742931918
-0.01197982507
-0.02644684945
-0.02676879846
-0.02729942554
-0.02798332005
-0.02928584907
-0.03130027912
-0.03397239198
-0.0371053767
-0.04036420883
-0.04327267072
-0.0452233235
-0.0455177246
-0.04353132077
-0.03878710987
-0.03132799567
-0.02199833773
-0.01266070173
-0.005959853419
-0.005329914391
-0.01029818485
-0.03386023571
-0.03396754947
-0.03433612166
-0.03492012239
-0.03634703792
-0.03878060017
-0.04219287823
-0.04637370992
-0.05093495921
-0.05529949407
-0.05870103538
-0.06022486789
-0.05886176957
-0.05380591362
-0.04467244088
-0.03201870527
-0.01786168121
-0.005735770433
-0.001225438141
-0.004460371068
-0.04209450525
-0.04179528302
-0.0417194852
-0.04180043394
-0.04296786909
-0.04549313823
-0.04938413447
-0.05441433747
-0.06013784555
-0.06588022465
-0.07072473598
-0.07353536275
-0.07302197681
-0.06794644912
-0.05742819567
-0.04149547757
-0.02194480781
-0.002824923441
0.007720356001
0.008663872966
-0.05148441082
-0.05027278834
-0.04921174245
-0.04811076432
-0.04842336163
-0.0505495687
-0.05451717289
-0.06005600838
-0.06663368556
-0.07346352224
-0.07947670291
-0.0833321614
-0.0834794907
-0.0782896388
-0.06639164517
-0.04714495833
-0.02180302493
0.005787289121
0.02496368359
0.03372621918
-0.0631545395
-0.05973111284
-0.05667777917
-0.05336293191
-0.05204480629
-0.0532005643
-0.05680499989
-0.06249090486
-0.06955892425
-0.07708040827
-0.08380567597
-0.08817999348
-0.08841275657
-0.08247480863
-0.06860144947
-0.04544947754
-0.013638441
0.02452035256
0.05562791426
0.077416712
-0.07974829611
-0.0706846474
-0.06378657439
-0.05686711774
-0.05312557722
-0.0528509395
-0.05580794651
-0.06137336636
-0.06865471792
-0.0764938418
-0.08342536097
-0.08765187422
-0.08709943042
-0.07942771325
-0.06238625975
-0.03406050652
0.005434425574
0.05860957617
0.1057697861
0.1480040767
-0.110164697
-0.08556268645
-0.07138564495
-0.05879434157
-0.05173755488
-0.04963797065
-0.0517597311
-0.05706547166
-0.06434276412
-0.07216593095
-0.0788299384
-0.08229196076
-0.08024410643
-0.06973994137
-0.04822331793
-0.0128223955
0.0380667517
0.1069743468
0.1778164863
0.256307353
-0.1681847676
-0.09969804025
-0.07488341897
-0.05472277453
-0.04453444958
-0.04143021654
-0.04345864245
-0.04901505235
-0.05656900691
-0.06448697306
-0.07089750102
-0.07358659403
-0.0698423159
-0.05688440333
-0.03103627999
0.01181198296
0.07541077814
0.1661959757
0.2759481279
0.437502502
-0.3981820339
-0.1379097882
-0.07487136711
-0.04704867121
-0.03350566921
-0.02992058461
-0.03259105569
-0.03894636732
-0.04715476162
-0.05549216154
-0.06206245884
-0.06465255753
-0.06071926206
-0.04682426072
-0.01873801331
0.02984822906
0.1067953169
0.2332366341
0.4196814067
0.7798316276
)


// ************************************************************************* //
